
                                 *****************
                                 * O   R   C   A *
                                 *****************

                                            #,                                       
                                            ###                                      
                                            ####                                     
                                            #####                                    
                                            ######                                   
                                           ########,                                 
                                     ,,################,,,,,                         
                               ,,#################################,,                 
                          ,,##########################################,,             
                       ,#########################################, ''#####,          
                    ,#############################################,,   '####,        
                  ,##################################################,,,,####,       
                ,###########''''           ''''###############################       
              ,#####''   ,,,,##########,,,,          '''####'''          '####       
            ,##' ,,,,###########################,,,                        '##       
           ' ,,###''''                  '''############,,,                           
         ,,##''                                '''############,,,,        ,,,,,,###''
      ,#''                                            '''#######################'''  
     '                                                          ''''####''''         
             ,#######,   #######,   ,#######,      ##                                
            ,#'     '#,  ##    ##  ,#'     '#,    #''#        ######   ,####,        
            ##       ##  ##   ,#'  ##            #'  '#       #        #'  '#        
            ##       ##  #######   ##           ,######,      #####,   #    #        
            '#,     ,#'  ##    ##  '#,     ,#' ,#      #,         ##   #,  ,#        
             '#######'   ##     ##  '#######'  #'      '#     #####' # '####'        



                  #######################################################
                  #                        -***-                        #
                  #          Department of theory and spectroscopy      #
                  #    Directorship and core code : Frank Neese         #
                  #        Max Planck Institute fuer Kohlenforschung    #
                  #                Kaiser Wilhelm Platz 1               #
                  #                 D-45470 Muelheim/Ruhr               #
                  #                      Germany                        #
                  #                                                     #
                  #                  All rights reserved                #
                  #                        -***-                        #
                  #######################################################


                         Program Version 5.0.2 -  RELEASE  -


 With contributions from (in alphabetic order):
   Daniel Aravena         : Magnetic Suceptibility
   Michael Atanasov       : Ab Initio Ligand Field Theory (pilot matlab implementation)
   Alexander A. Auer      : GIAO ZORA, VPT2 properties, NMR spectrum
   Ute Becker             : Parallelization
   Giovanni Bistoni       : ED, misc. LED, open-shell LED, HFLD
   Martin Brehm           : Molecular dynamics
   Dmytro Bykov           : SCF Hessian
   Vijay G. Chilkuri      : MRCI spin determinant printing, contributions to CSF-ICE
   Dipayan Datta          : RHF DLPNO-CCSD density
   Achintya Kumar Dutta   : EOM-CC, STEOM-CC
   Dmitry Ganyushin       : Spin-Orbit,Spin-Spin,Magnetic field MRCI
   Miquel Garcia          : C-PCM and meta-GGA Hessian, CC/C-PCM, Gaussian charge scheme
   Yang Guo               : DLPNO-NEVPT2, F12-NEVPT2, CIM, IAO-localization
   Andreas Hansen         : Spin unrestricted coupled pair/coupled cluster methods
   Benjamin Helmich-Paris : MC-RPA, TRAH-SCF, COSX integrals
   Lee Huntington         : MR-EOM, pCC
   Robert Izsak           : Overlap fitted RIJCOSX, COSX-SCS-MP3, EOM
   Marcus Kettner         : VPT2
   Christian Kollmar      : KDIIS, OOCD, Brueckner-CCSD(T), CCSD density, CASPT2, CASPT2-K
   Simone Kossmann        : Meta GGA functionals, TD-DFT gradient, OOMP2, MP2 Hessian
   Martin Krupicka        : Initial AUTO-CI
   Lucas Lang             : DCDCAS
   Marvin Lechner         : AUTO-CI (C++ implementation), FIC-MRCC
   Dagmar Lenk            : GEPOL surface, SMD
   Dimitrios Liakos       : Extrapolation schemes; Compound Job, initial MDCI parallelization
   Dimitrios Manganas     : Further ROCIS development; embedding schemes
   Dimitrios Pantazis     : SARC Basis sets
   Anastasios Papadopoulos: AUTO-CI, single reference methods and gradients
   Taras Petrenko         : DFT Hessian,TD-DFT gradient, ASA, ECA, R-Raman, ABS, FL, XAS/XES, NRVS
   Peter Pinski           : DLPNO-MP2, DLPNO-MP2 Gradient
   Christoph Reimann      : Effective Core Potentials
   Marius Retegan         : Local ZFS, SOC
   Christoph Riplinger    : Optimizer, TS searches, QM/MM, DLPNO-CCSD(T), (RO)-DLPNO pert. Triples
   Tobias Risthaus        : Range-separated hybrids, TD-DFT gradient, RPA, STAB
   Michael Roemelt        : Original ROCIS implementation
   Masaaki Saitow         : Open-shell DLPNO-CCSD energy and density
   Barbara Sandhoefer     : DKH picture change effects
   Avijit Sen             : IP-ROCIS
   Kantharuban Sivalingam : CASSCF convergence, NEVPT2, FIC-MRCI
   Bernardo de Souza      : ESD, SOC TD-DFT
   Georgi Stoychev        : AutoAux, RI-MP2 NMR, DLPNO-MP2 response
   Willem Van den Heuvel  : Paramagnetic NMR
   Boris Wezisla          : Elementary symmetry handling
   Frank Wennmohs         : Technical directorship


 We gratefully acknowledge several colleagues who have allowed us to
 interface, adapt or use parts of their codes:
   Stefan Grimme, W. Hujo, H. Kruse, P. Pracht,  : VdW corrections, initial TS optimization,
                  C. Bannwarth, S. Ehlert          DFT functionals, gCP, sTDA/sTD-DF
   Ed Valeev, F. Pavosevic, A. Kumar             : LibInt (2-el integral package), F12 methods
   Garnet Chan, S. Sharma, J. Yang, R. Olivares  : DMRG
   Ulf Ekstrom                                   : XCFun DFT Library
   Mihaly Kallay                                 : mrcc  (arbitrary order and MRCC methods)
   Jiri Pittner, Ondrej Demel                    : Mk-CCSD
   Frank Weinhold                                : gennbo (NPA and NBO analysis)
   Christopher J. Cramer and Donald G. Truhlar   : smd solvation model
   Lars Goerigk                                  : TD-DFT with DH, B97 family of functionals
   V. Asgeirsson, H. Jonsson                     : NEB implementation
   FAccTs GmbH                                   : IRC, NEB, NEB-TS, DLPNO-Multilevel, CI-OPT
                                                   MM, QMMM, 2- and 3-layer-ONIOM, Crystal-QMMM,
                                                   LR-CPCM, SF, NACMEs, symmetry and pop. for TD-DFT,
                                                   nearIR, NL-DFT gradient (VV10), updates on ESD,
                                                   ML-optimized integration grids
   S Lehtola, MJT Oliveira, MAL Marques          : LibXC Library
   Liviu Ungur et al                             : ANISO software


 Your calculation uses the libint2 library for the computation of 2-el integrals
 For citations please refer to: http://libint.valeyev.net

 Your ORCA version has been built with support for libXC version: 5.1.0
 For citations please refer to: https://tddft.org/programs/libxc/

 This ORCA versions uses:
   CBLAS   interface :  Fast vector & matrix operations
   LAPACKE interface :  Fast linear algebra routines
   SCALAPACK package :  Parallel linear algebra routines
   Shared memory     :  Shared parallel matrices
   BLAS/LAPACK       :  OpenBLAS 0.3.15  USE64BITINT DYNAMIC_ARCH NO_AFFINITY SkylakeX SINGLE_THREADED
        Core in use  :  SkylakeX
   Copyright (c) 2011-2014, The OpenBLAS Project


Your calculation utilizes the atom-pairwise dispersion correction
with the Becke-Johnson damping scheme (D3BJ)
Cite in your paper:
S.Grimme, S.Ehrlich, L.Goerigk, J Comput Chem, (2011), 32, 1456–1465 
S.Grimme, J.Antony, S.Ehrlich and H.Krieg, J.Chem.Phys., 132, (2010), 154104 
   

================================================================================

----- Orbital basis set information -----
Your calculation utilizes the basis: def2-TZVP
   F. Weigend and R. Ahlrichs, Phys. Chem. Chem. Phys. 7, 3297 (2005).

----- AuxJ basis set information -----
Your calculation utilizes the auxiliary basis: def2/J
   F. Weigend, Phys. Chem. Chem. Phys. 8, 1057 (2006).

================================================================================
                                        WARNINGS
                       Please study these warnings very carefully!
================================================================================


INFO   : the flag for use of the SHARK integral package has been found!

================================================================================
                                       INPUT FILE
================================================================================
NAME = ox_gs_D_orca0006.inp
|  1> ! engrad PBE0 D3BJ def2-TZVP  
|  2> %pal nprocs 8 end
|  3> %maxcore 3000
|  4>  
|  5> *xyz 0 1 
|  6> O   -0.7534389149492687 1.0021736952359295 0.03532799131167136
|  7> C   -0.7143440292757276 -0.3911713142317879 -0.04540993799565835
|  8> C   0.7567674098144983 -0.4578683025883427 -0.09281337029905333
|  9> H   -1.2032663319031136 -0.6451829795053435 0.9371426928641996
| 10> H   -1.2443722970757378 -0.6703877919265502 -0.8174735583249779
| 11> H   1.2482126705206202 -0.6751270548397333 -0.9915879696337092
| 12> H   1.2619604479123154 -0.6059341909963575 0.9414643391084392
| 13> *
| 14> 
| 15>                          ****END OF INPUT****
================================================================================

                     *******************************
                     * Energy+Gradient Calculation *
                     *******************************

---------------------------------
CARTESIAN COORDINATES (ANGSTROEM)
---------------------------------
  O     -0.753439    1.002174    0.035328
  C     -0.714344   -0.391171   -0.045410
  C      0.756767   -0.457868   -0.092813
  H     -1.203266   -0.645183    0.937143
  H     -1.244372   -0.670388   -0.817474
  H      1.248213   -0.675127   -0.991588
  H      1.261960   -0.605934    0.941464

----------------------------
CARTESIAN COORDINATES (A.U.)
----------------------------
  NO LB      ZA    FRAG     MASS         X           Y           Z
   0 O     8.0000    0    15.999   -1.423793    1.893834    0.066760
   1 C     6.0000    0    12.011   -1.349915   -0.739207   -0.085812
   2 C     6.0000    0    12.011    1.430083   -0.865246   -0.175392
   3 H     1.0000    0     1.008   -2.273844   -1.219219    1.770943
   4 H     1.0000    0     1.008   -2.351523   -1.266849   -1.544801
   5 H     1.0000    0     1.008    2.358780   -1.275805   -1.873830
   6 H     1.0000    0     1.008    2.384760   -1.145050    1.779110

--------------------------------
INTERNAL COORDINATES (ANGSTROEM)
--------------------------------
 O      0   0   0     0.000000000000     0.00000000     0.00000000
 C      1   0   0     1.396229686951     0.00000000     0.00000000
 C      2   1   0     1.473385367062    94.30075518     0.00000000
 H      2   1   3     1.126488622451    99.34820549   118.09614620
 H      2   1   3     0.977227731862   108.39893410   236.16449679
 H      3   2   1     1.047146403379   120.37124124   254.36240157
 H      3   2   1     1.160548962013   114.31394693    93.60231990

---------------------------
INTERNAL COORDINATES (A.U.)
---------------------------
 O      0   0   0     0.000000000000     0.00000000     0.00000000
 C      1   0   0     2.638491728388     0.00000000     0.00000000
 C      2   1   0     2.784294833474    94.30075518     0.00000000
 H      2   1   3     2.128754989410    99.34820549   118.09614620
 H      2   1   3     1.846692783691   108.39893410   236.16449679
 H      3   2   1     1.978819924507   120.37124124   254.36240157
 H      3   2   1     2.193119703211   114.31394693    93.60231990

---------------------
BASIS SET INFORMATION
---------------------
There are 3 groups of distinct atoms

 Group   1 Type O   : 11s6p2d1f contracted to 5s3p2d1f pattern {62111/411/11/1}
 Group   2 Type C   : 11s6p2d1f contracted to 5s3p2d1f pattern {62111/411/11/1}
 Group   3 Type H   : 5s1p contracted to 3s1p pattern {311/1}

Atom   0O    basis set group =>   1
Atom   1C    basis set group =>   2
Atom   2C    basis set group =>   2
Atom   3H    basis set group =>   3
Atom   4H    basis set group =>   3
Atom   5H    basis set group =>   3
Atom   6H    basis set group =>   3
---------------------------------
AUXILIARY/J BASIS SET INFORMATION
---------------------------------
There are 3 groups of distinct atoms

 Group   1 Type O   : 12s5p4d2f1g contracted to 6s4p3d1f1g pattern {711111/2111/211/2/1}
 Group   2 Type C   : 12s5p4d2f1g contracted to 6s4p3d1f1g pattern {711111/2111/211/2/1}
 Group   3 Type H   : 5s2p1d contracted to 3s1p1d pattern {311/2/1}

Atom   0O    basis set group =>   1
Atom   1C    basis set group =>   2
Atom   2C    basis set group =>   2
Atom   3H    basis set group =>   3
Atom   4H    basis set group =>   3
Atom   5H    basis set group =>   3
Atom   6H    basis set group =>   3


           ************************************************************
           *        Program running with 8 parallel MPI-processes     *
           *              working on a common directory               *
           ************************************************************
------------------------------------------------------------------------------
                           ORCA GTO INTEGRAL CALCULATION
                           -- RI-GTO INTEGRALS CHOSEN --
------------------------------------------------------------------------------
------------------------------------------------------------------------------
                   ___                                                        
                  /   \      - P O W E R E D   B Y -                         
                 /     \                                                     
                 |  |  |   _    _      __       _____    __    __             
                 |  |  |  | |  | |    /  \     |  _  \  |  |  /  |          
                  \  \/   | |  | |   /    \    | | | |  |  | /  /          
                 / \  \   | |__| |  /  /\  \   | |_| |  |  |/  /          
                |  |  |   |  __  | /  /__\  \  |    /   |      \           
                |  |  |   | |  | | |   __   |  |    \   |  |\   \          
                \     /   | |  | | |  |  |  |  | |\  \  |  | \   \       
                 \___/    |_|  |_| |__|  |__|  |_| \__\ |__|  \__/        
                                                                              
                      - O R C A' S   B I G   F R I E N D -                    
                                      &                                       
                       - I N T E G R A L  F E E D E R -                       
                                                                              
 v1 FN, 2020, v2 2021                                                         
------------------------------------------------------------------------------


Reading SHARK input file ox_gs_D_orca0006.SHARKINP.tmp ... ok
----------------------
SHARK INTEGRAL PACKAGE
----------------------

Number of atoms                             ...      7
Number of basis functions                   ...    117
Number of shells                            ...     49
Maximum angular momentum                    ...      3
Integral batch strategy                     ... SHARK/LIBINT Hybrid
RI-J (if used) integral strategy            ... SPLIT-RIJ (Revised 2003 algorithm where possible)
Printlevel                                  ...      1
Contraction scheme used                     ... SEGMENTED contraction
Coulomb Range Separation                    ... NOT USED
Exchange Range Separation                   ... NOT USED
Finite Nucleus Model                        ... NOT USED
Auxiliary Coulomb fitting basis             ... AVAILABLE
   # of basis functions in Aux-J            ...    191
   # of shells in Aux-J                     ...     65
   Maximum angular momentum in Aux-J        ...      4
Auxiliary J/K fitting basis                 ... NOT available
Auxiliary Correlation fitting basis         ... NOT available
Auxiliary 'external' fitting basis          ... NOT available
Integral threshold                          ...     2.500000e-11
Primitive cut-off                           ...     2.500000e-12
Primitive pair pre-selection threshold      ...     2.500000e-12

Calculating pre-screening integrals         ... done (  0.0 sec) Dimension = 49
Organizing shell pair data                  ... done (  0.0 sec)
Shell pair information
Total number of shell pairs                 ...      1225
Shell pairs after pre-screening             ...      1214
Total number of primitive shell pairs       ...      3648
Primitive shell pairs kept                  ...      3093
          la=0 lb=0:    368 shell pairs
          la=1 lb=0:    351 shell pairs
          la=1 lb=1:     91 shell pairs
          la=2 lb=0:    161 shell pairs
          la=2 lb=1:     78 shell pairs
          la=2 lb=2:     21 shell pairs
          la=3 lb=0:     81 shell pairs
          la=3 lb=1:     39 shell pairs
          la=3 lb=2:     18 shell pairs
          la=3 lb=3:      6 shell pairs

Calculating one electron integrals          ... done (  0.0 sec)
Calculating RI/J V-Matrix + Cholesky decomp.... done (  0.0 sec)
Calculating Nuclear repulsion               ... done (  0.0 sec) ENN=     69.591331281696 Eh

SHARK setup successfully completed in   0.1 seconds

Maximum memory used throughout the entire GTOINT-calculation: 14.9 MB


           ************************************************************
           *        Program running with 8 parallel MPI-processes     *
           *              working on a common directory               *
           ************************************************************
-------------------------------------------------------------------------------
                                 ORCA SCF
-------------------------------------------------------------------------------

------------
SCF SETTINGS
------------
Hamiltonian:
 Density Functional     Method          .... DFT(GTOs)
 Exchange Functional    Exchange        .... PBE
   PBE kappa parameter   XKappa         ....  0.804000
   PBE mue parameter    XMuePBE         ....  0.219520
 Correlation Functional Correlation     .... PBE
   PBE beta parameter  CBetaPBE         ....  0.066725
 LDA part of GGA corr.  LDAOpt          .... PW91-LDA
 Gradients option       PostSCFGGA      .... off
 Hybrid DFT is turned on
   Fraction HF Exchange ScalHFX         ....  0.250000
   Scaling of DF-GGA-X  ScalDFX         ....  0.750000
   Scaling of DF-GGA-C  ScalDFC         ....  1.000000
   Scaling of DF-LDA-C  ScalLDAC        ....  1.000000
   Perturbative correction              ....  0.000000
   Density functional embedding theory  .... OFF
   NL short-range parameter             ....  6.900000
 RI-approximation to the Coulomb term is turned on
   Number of AuxJ basis functions       .... 191
   RIJ-COSX (HFX calculated with COS-X)).... on


General Settings:
 Integral files         IntName         .... ox_gs_D_orca0006
 Hartree-Fock type      HFTyp           .... RHF
 Total Charge           Charge          ....    0
 Multiplicity           Mult            ....    1
 Number of Electrons    NEL             ....   24
 Basis Dimension        Dim             ....  117
 Nuclear Repulsion      ENuc            ....     69.5913312817 Eh

Convergence Acceleration:
 DIIS                   CNVDIIS         .... on
   Start iteration      DIISMaxIt       ....    12
   Startup error        DIISStart       ....  0.200000
   # of expansion vecs  DIISMaxEq       ....     5
   Bias factor          DIISBfac        ....   1.050
   Max. coefficient     DIISMaxC        ....  10.000
 Trust-Rad. Augm. Hess. CNVTRAH         .... auto
   Auto Start mean grad. ratio tolernc. ....  1.125000
   Auto Start start iteration           ....    20
   Auto Start num. interpolation iter.  ....    10
   Max. Number of Micro iterations      ....    16
   Max. Number of Macro iterations      .... Maxiter - #DIIS iter
   Number of Davidson start vectors     ....     2
   Converg. threshold I  (grad. norm)   ....   1.000e-05
   Converg. threshold II (energy diff.) ....   1.000e-08
   Grad. Scal. Fac. for Micro threshold ....   0.100
   Minimum threshold for Micro iter.    ....   0.010
   NR start threshold (gradient norm)   ....   0.001
   Initial trust radius                 ....   0.400
   Minimum AH scaling param. (alpha)    ....   1.000
   Maximum AH scaling param. (alpha)    .... 1000.000
   Orbital update algorithm             .... Taylor
   White noise on init. David. guess    .... on
   Maximum white noise                  ....   0.010
   Quad. conv. algorithm                .... NR
 SOSCF                  CNVSOSCF        .... on
   Start iteration      SOSCFMaxIt      ....   150
   Startup grad/error   SOSCFStart      ....  0.003300
 Level Shifting         CNVShift        .... on
   Level shift para.    LevelShift      ....    0.2500
   Turn off err/grad.   ShiftErr        ....    0.0010
 Zerner damping         CNVZerner       .... off
 Static damping         CNVDamp         .... on
   Fraction old density DampFac         ....    0.7000
   Max. Damping (<1)    DampMax         ....    0.9800
   Min. Damping (>=0)   DampMin         ....    0.0000
   Turn off err/grad.   DampErr         ....    0.1000
 Fernandez-Rico         CNVRico         .... off

SCF Procedure:
 Maximum # iterations   MaxIter         ....   125
 SCF integral mode      SCFMode         .... Direct
   Integral package                     .... SHARK and LIBINT hybrid scheme
 Reset frequency        DirectResetFreq ....    20
 Integral Threshold     Thresh          ....  2.500e-11 Eh
 Primitive CutOff       TCut            ....  2.500e-12 Eh

Convergence Tolerance:
 Convergence Check Mode ConvCheckMode   .... Total+1el-Energy
 Convergence forced     ConvForced      .... 0
 Energy Change          TolE            ....  1.000e-08 Eh
 1-El. energy change                    ....  1.000e-05 Eh
 Orbital Gradient       TolG            ....  1.000e-05
 Orbital Rotation angle TolX            ....  1.000e-05
 DIIS Error             TolErr          ....  5.000e-07


Diagonalization of the overlap matrix:
Smallest eigenvalue                        ... 4.968e-04
Time for diagonalization                   ...    0.001 sec
Threshold for overlap eigenvalues          ... 1.000e-08
Number of eigenvalues below threshold      ... 0
Time for construction of square roots      ...    0.001 sec
Total time needed                          ...    0.003 sec

Time for model grid setup =    0.022 sec

------------------------------
INITIAL GUESS: MODEL POTENTIAL
------------------------------
Loading Hartree-Fock densities                     ... done
Calculating cut-offs                               ... done
Initializing the effective Hamiltonian             ... done
Setting up the integral package (SHARK)            ... done
Starting the Coulomb interaction                   ... done (   0.0 sec)
Reading the grid                                   ... done
Mapping shells                                     ... done
Starting the XC term evaluation                    ... done (   0.0 sec)
  promolecular density results
     # of electrons  =     23.999089293
     EX              =    -19.474036255
     EC              =     -0.768087843
     EX+EC           =    -20.242124099
Transforming the Hamiltonian                       ... done (   0.0 sec)
Diagonalizing the Hamiltonian                      ... done (   0.0 sec)
Back transforming the eigenvectors                 ... done (   0.0 sec)
Now organizing SCF variables                       ... done
                      ------------------
                      INITIAL GUESS DONE (   0.0 sec)
                      ------------------
-------------------
DFT GRID GENERATION
-------------------

General Integration Accuracy     IntAcc      ... 4.388
Radial Grid Type                 RadialGrid  ... OptM3 with GC (2021)
Angular Grid (max. ang.)         AngularGrid ... 4 (Lebedev-302)
Angular grid pruning method      GridPruning ... 4 (adaptive)
Weight generation scheme         WeightScheme... Becke
Basis function cutoff            BFCut       ... 1.0000e-11
Integration weight cutoff        WCut        ... 1.0000e-14
Angular grids for H and He will be reduced by one unit
Partially contracted basis set               ... off
Rotationally invariant grid construction     ... off

Total number of grid points                  ...    31313
Total number of batches                      ...      493
Average number of points per batch           ...       63
Average number of grid points per atom       ...     4473
Time for grid setup =    0.110 sec

--------------------
COSX GRID GENERATION
--------------------

GRIDX 1
-------
General Integration Accuracy     IntAcc      ... 3.816
Radial Grid Type                 RadialGrid  ... OptM3 with GC (2021)
Angular Grid (max. ang.)         AngularGrid ... 1 (Lebedev-50)
Angular grid pruning method      GridPruning ... 4 (adaptive)
Weight generation scheme         WeightScheme... Becke
Basis function cutoff            BFCut       ... 1.0000e-11
Integration weight cutoff        WCut        ... 1.0000e-14
Angular grids for H and He will be reduced by one unit
Partially contracted basis set               ... on
Rotationally invariant grid construction     ... off

Total number of grid points                  ...     4029
Total number of batches                      ...       67
Average number of points per batch           ...       60
Average number of grid points per atom       ...      576
UseSFitting                                  ... on

GRIDX 2
-------
General Integration Accuracy     IntAcc      ... 4.020
Radial Grid Type                 RadialGrid  ... OptM3 with GC (2021)
Angular Grid (max. ang.)         AngularGrid ... 2 (Lebedev-110)
Angular grid pruning method      GridPruning ... 4 (adaptive)
Weight generation scheme         WeightScheme... Becke
Basis function cutoff            BFCut       ... 1.0000e-11
Integration weight cutoff        WCut        ... 1.0000e-14
Angular grids for H and He will be reduced by one unit
Partially contracted basis set               ... on
Rotationally invariant grid construction     ... off

Total number of grid points                  ...     8720
Total number of batches                      ...      140
Average number of points per batch           ...       62
Average number of grid points per atom       ...     1246
UseSFitting                                  ... on

GRIDX 3
-------
General Integration Accuracy     IntAcc      ... 4.338
Radial Grid Type                 RadialGrid  ... OptM3 with GC (2021)
Angular Grid (max. ang.)         AngularGrid ... 3 (Lebedev-194)
Angular grid pruning method      GridPruning ... 4 (adaptive)
Weight generation scheme         WeightScheme... Becke
Basis function cutoff            BFCut       ... 1.0000e-11
Integration weight cutoff        WCut        ... 1.0000e-14
Angular grids for H and He will be reduced by one unit
Partially contracted basis set               ... on
Rotationally invariant grid construction     ... off

Total number of grid points                  ...    19256
Total number of batches                      ...      304
Average number of points per batch           ...       63
Average number of grid points per atom       ...     2751
UseSFitting                                  ... on

Time for X-Grid setup             =    0.072 sec

--------------
SCF ITERATIONS
--------------
ITER       Energy         Delta-E        Max-DP      RMS-DP      [F,P]     Damp
               ***  Starting incremental Fock matrix formation  ***
  0   -153.3964231725   0.000000000000 0.08611973  0.00233197  0.3171509 0.7000
  1   -153.4847983125  -0.088375140005 0.05051855  0.00133284  0.0873400 0.7000
                               ***Turning on DIIS***
  2   -153.4999570269  -0.015158714397 0.04430768  0.00169395  0.0582223 0.0000
  3   -153.5538071612  -0.053850134306 0.02747240  0.00108703  0.0390568 0.0000
  4   -153.5560715636  -0.002264402396 0.01117060  0.00035681  0.0532705 0.0000
  5   -153.5590813163  -0.003009752701 0.00368985  0.00011513  0.0134711 0.0000
  6   -153.5592946795  -0.000213363206 0.00157013  0.00004537  0.0052953 0.0000
                      *** Initiating the SOSCF procedure ***
                           *** Shutting down DIIS ***
                      *** Re-Reading the Fockian *** 
                      *** Removing any level shift *** 
ITER      Energy       Delta-E        Grad      Rot      Max-DP    RMS-DP
  7   -153.55932126  -0.0000265758  0.000320  0.000320  0.000852  0.000036
               *** Restarting incremental Fock matrix formation ***
  8   -153.55932365  -0.0000023939  0.000465  0.002887  0.001519  0.000040
  9   -153.55930989   0.0000137623  0.001734  0.002329  0.001306  0.000031
 10   -153.55932552  -0.0000156376  0.000085  0.000451  0.000144  0.000007
 11   -153.55932559  -0.0000000640  0.000092  0.000251  0.000076  0.000004
 12   -153.55932573  -0.0000001458  0.000017  0.000208  0.000065  0.000002
 13   -153.55932574  -0.0000000100  0.000004  0.000081  0.000026  0.000001
 14   -153.55932575  -0.0000000010  0.000003  0.000003  0.000005  0.000000
                  ***Gradient check signals convergence***
              ***Rediagonalizing the Fockian in SOSCF/NRSCF***

               *****************************************************
               *                     SUCCESS                       *
               *           SCF CONVERGED AFTER  15 CYCLES          *
               *****************************************************

Old exchange energy                            =     -4.966362676 Eh
New exchange energy                            =     -4.966371925 Eh
Exchange energy change after final integration =     -0.000009250 Eh
Total energy after final integration           =   -153.559334995 Eh
Final COS-X integration done in                =     0.257 sec

----------------
TOTAL SCF ENERGY
----------------

Total Energy       :         -153.55933499 Eh           -4178.56194 eV

Components:
Nuclear Repulsion  :           69.59133128 Eh            1893.67640 eV
Electronic Energy  :         -223.15066628 Eh           -6072.23834 eV
One Electron Energy:         -345.96860441 Eh           -9414.28434 eV
Two Electron Energy:          122.81793813 Eh            3342.04600 eV
Max COSX asymmetry :            0.00000109 Eh               0.00003 eV

Virial components:
Potential Energy   :         -306.43319819 Eh           -8338.47124 eV
Kinetic Energy     :          152.87386320 Eh            4159.90930 eV
Virial Ratio       :            2.00448390


DFT components:
N(Alpha)           :       12.000008482606 electrons
N(Beta)            :       12.000008482606 electrons
N(Total)           :       24.000016965212 electrons
E(X)               :      -14.904860234949 Eh       
E(C)               :       -0.773993260347 Eh       
E(XC)              :      -15.678853495296 Eh       
DFET-embed. en.    :        0.000000000000 Eh       

---------------
SCF CONVERGENCE
---------------

  Last Energy change         ...    3.0286e-10  Tolerance :   1.0000e-08
  Last MAX-Density change    ...    7.7716e-16  Tolerance :   1.0000e-07
  Last RMS-Density change    ...    2.1510e-17  Tolerance :   5.0000e-09
  Last Orbital Gradient      ...    4.9488e-07  Tolerance :   1.0000e-05
  Last Orbital Rotation      ...    7.3733e-06  Tolerance :   1.0000e-05

             **** THE GBW FILE WAS UPDATED (ox_gs_D_orca0006.gbw) ****
             **** DENSITY ox_gs_D_orca0006.scfp WAS UPDATED ****
             **** ENERGY FILE WAS UPDATED (ox_gs_D_orca0006.en.tmp) ****
             **** THE GBW FILE WAS UPDATED (ox_gs_D_orca0006.gbw) ****
             **** DENSITY ox_gs_D_orca0006.scfp WAS UPDATED ****
----------------
ORBITAL ENERGIES
----------------

  NO   OCC          E(Eh)            E(eV) 
   0   2.0000     -19.200850      -522.4817 
   1   2.0000     -10.320141      -280.8253 
   2   2.0000     -10.261410      -279.2272 
   3   2.0000      -1.007846       -27.4249 
   4   2.0000      -0.764410       -20.8007 
   5   2.0000      -0.635490       -17.2926 
   6   2.0000      -0.528900       -14.3921 
   7   2.0000      -0.477703       -12.9990 
   8   2.0000      -0.428646       -11.6641 
   9   2.0000      -0.400000       -10.8846 
  10   2.0000      -0.283790        -7.7223 
  11   2.0000      -0.258431        -7.0323 
  12   0.0000      -0.122651        -3.3375 
  13   0.0000       0.047585         1.2949 
  14   0.0000       0.084967         2.3121 
  15   0.0000       0.092431         2.5152 
  16   0.0000       0.130778         3.5586 
  17   0.0000       0.151192         4.1142 
  18   0.0000       0.180226         4.9042 
  19   0.0000       0.203386         5.5344 
  20   0.0000       0.236704         6.4410 
  21   0.0000       0.249298         6.7837 
  22   0.0000       0.274924         7.4811 
  23   0.0000       0.338640         9.2149 
  24   0.0000       0.370962        10.0944 
  25   0.0000       0.398339        10.8393 
  26   0.0000       0.412245        11.2177 
  27   0.0000       0.419104        11.4044 
  28   0.0000       0.444154        12.0861 
  29   0.0000       0.479333        13.0433 
  30   0.0000       0.499251        13.5853 
  31   0.0000       0.556273        15.1370 
  32   0.0000       0.576715        15.6932 
  33   0.0000       0.615611        16.7516 
  34   0.0000       0.648638        17.6503 
  35   0.0000       0.740118        20.1396 
  36   0.0000       0.809683        22.0326 
  37   0.0000       0.856085        23.2953 
  38   0.0000       0.867574        23.6079 
  39   0.0000       0.920654        25.0523 
  40   0.0000       0.939012        25.5518 
  41   0.0000       1.038459        28.2579 
  42   0.0000       1.044976        28.4352 
  43   0.0000       1.071333        29.1525 
  44   0.0000       1.186576        32.2884 
  45   0.0000       1.323730        36.0205 
  46   0.0000       1.378162        37.5017 
  47   0.0000       1.472405        40.0662 
  48   0.0000       1.522117        41.4189 
  49   0.0000       1.536543        41.8115 
  50   0.0000       1.594868        43.3986 
  51   0.0000       1.611529        43.8519 
  52   0.0000       1.640517        44.6407 
  53   0.0000       1.696449        46.1627 
  54   0.0000       1.737878        47.2901 
  55   0.0000       1.782521        48.5049 
  56   0.0000       1.784031        48.5459 
  57   0.0000       1.831022        49.8246 
  58   0.0000       1.887112        51.3509 
  59   0.0000       1.898129        51.6507 
  60   0.0000       2.000946        54.4485 
  61   0.0000       2.107842        57.3573 
  62   0.0000       2.148449        58.4623 
  63   0.0000       2.223574        60.5065 
  64   0.0000       2.332474        63.4698 
  65   0.0000       2.374788        64.6213 
  66   0.0000       2.404080        65.4183 
  67   0.0000       2.456863        66.8546 
  68   0.0000       2.503731        68.1300 
  69   0.0000       2.541187        69.1492 
  70   0.0000       2.570595        69.9494 
  71   0.0000       2.637370        71.7665 
  72   0.0000       2.651583        72.1532 
  73   0.0000       2.732857        74.3648 
  74   0.0000       2.775316        75.5202 
  75   0.0000       2.828451        76.9661 
  76   0.0000       2.854661        77.6793 
  77   0.0000       2.940773        80.0225 
  78   0.0000       2.961893        80.5972 
  79   0.0000       2.988624        81.3246 
  80   0.0000       3.041242        82.7564 
  81   0.0000       3.080803        83.8329 
  82   0.0000       3.122316        84.9625 
  83   0.0000       3.143520        85.5395 
  84   0.0000       3.199336        87.0584 
  85   0.0000       3.212852        87.4261 
  86   0.0000       3.342026        90.9411 
  87   0.0000       3.415532        92.9414 
  88   0.0000       3.497804        95.1801 
  89   0.0000       3.503359        95.3312 
  90   0.0000       3.540509        96.3421 
  91   0.0000       3.709256       100.9340 
  92   0.0000       3.721342       101.2629 
  93   0.0000       3.809320       103.6569 
  94   0.0000       3.971209       108.0621 
  95   0.0000       4.060904       110.5028 
  96   0.0000       4.143638       112.7541 
  97   0.0000       4.314213       117.3957 
  98   0.0000       4.404884       119.8630 
  99   0.0000       4.501021       122.4790 
 100   0.0000       4.569672       124.3471 
 101   0.0000       4.768558       129.7591 
 102   0.0000       5.210400       141.7822 
 103   0.0000       5.269647       143.3944 
 104   0.0000       5.395584       146.8213 
 105   0.0000       5.418181       147.4362 
 106   0.0000       5.814133       158.2106 
 107   0.0000       5.841758       158.9623 
 108   0.0000       5.972207       162.5120 
 109   0.0000       6.396409       174.0551 
 110   0.0000       6.434492       175.0914 
 111   0.0000       6.803552       185.1341 
 112   0.0000       6.838620       186.0883 
 113   0.0000       6.956635       189.2997 
 114   0.0000      22.045795       599.8966 
 115   0.0000      22.647539       616.2709 
 116   0.0000      43.750630      1190.5152 

                    ********************************
                    * MULLIKEN POPULATION ANALYSIS *
                    ********************************

-----------------------
MULLIKEN ATOMIC CHARGES
-----------------------
   0 O :   -0.382392
   1 C :   -0.008233
   2 C :   -0.144509
   3 H :    0.092575
   4 H :    0.107177
   5 H :    0.164978
   6 H :    0.170403
Sum of atomic charges:    0.0000000

--------------------------------
MULLIKEN REDUCED ORBITAL CHARGES
--------------------------------
  0 O s       :     3.906428  s :     3.906428
      pz      :     1.899195  p :     4.449703
      px      :     1.272471
      py      :     1.278037
      dz2     :     0.003314  d :     0.024942
      dxz     :     0.000287
      dyz     :     0.005657
      dx2y2   :     0.008973
      dxy     :     0.006711
      f0      :     0.000159  f :     0.001318
      f+1     :     0.000059
      f-1     :     0.000312
      f+2     :     0.000180
      f-2     :     0.000024
      f+3     :     0.000269
      f-3     :     0.000314
  1 C s       :     3.170255  s :     3.170255
      pz      :     1.052737  p :     2.669873
      px      :     0.894816
      py      :     0.722320
      dz2     :     0.009776  d :     0.157889
      dxz     :     0.017065
      dyz     :     0.051228
      dx2y2   :     0.022321
      dxy     :     0.057498
      f0      :     0.001822  f :     0.010216
      f+1     :     0.001076
      f-1     :     0.000888
      f+2     :     0.003045
      f-2     :     0.000120
      f+3     :     0.002110
      f-3     :     0.001156
  2 C s       :     3.312370  s :     3.312370
      pz      :     1.046492  p :     2.775087
      px      :     1.012906
      py      :     0.715689
      dz2     :     0.007150  d :     0.052174
      dxz     :     0.022554
      dyz     :     0.004796
      dx2y2   :     0.005505
      dxy     :     0.012169
      f0      :     0.000651  f :     0.004877
      f+1     :     0.001102
      f-1     :     0.000112
      f+2     :     0.000682
      f-2     :     0.000252
      f+3     :     0.000900
      f-3     :     0.001177
  3 H s       :     0.887510  s :     0.887510
      pz      :     0.010511  p :     0.019915
      px      :     0.005213
      py      :     0.004192
  4 H s       :     0.869086  s :     0.869086
      pz      :     0.010026  p :     0.023737
      px      :     0.007948
      py      :     0.005763
  5 H s       :     0.810911  s :     0.810911
      pz      :     0.012056  p :     0.024111
      px      :     0.007235
      py      :     0.004820
  6 H s       :     0.809353  s :     0.809353
      pz      :     0.011681  p :     0.020244
      px      :     0.005282
      py      :     0.003281


                     *******************************
                     * LOEWDIN POPULATION ANALYSIS *
                     *******************************

----------------------
LOEWDIN ATOMIC CHARGES
----------------------
   0 O :   -0.034538
   1 C :   -0.443571
   2 C :   -0.003950
   3 H :    0.124569
   4 H :    0.083853
   5 H :    0.117043
   6 H :    0.156594

-------------------------------
LOEWDIN REDUCED ORBITAL CHARGES
-------------------------------
  0 O s       :     3.543451  s :     3.543451
      pz      :     1.819594  p :     4.430186
      px      :     1.213571
      py      :     1.397021
      dz2     :     0.006911  d :     0.056956
      dxz     :     0.000287
      dyz     :     0.015735
      dx2y2   :     0.018622
      dxy     :     0.015401
      f0      :     0.000428  f :     0.003946
      f+1     :     0.000096
      f-1     :     0.000615
      f+2     :     0.000820
      f-2     :     0.000024
      f+3     :     0.001149
      f-3     :     0.000814
  1 C s       :     2.802745  s :     2.802745
      pz      :     1.058466  p :     2.944883
      px      :     1.034781
      py      :     0.851637
      dz2     :     0.067541  d :     0.620786
      dxz     :     0.097382
      dyz     :     0.143066
      dx2y2   :     0.136304
      dxy     :     0.176492
      f0      :     0.011116  f :     0.075156
      f+1     :     0.005880
      f-1     :     0.008238
      f+2     :     0.017876
      f-2     :     0.002274
      f+3     :     0.014859
      f-3     :     0.014913
  2 C s       :     2.921581  s :     2.921581
      pz      :     1.069308  p :     2.839376
      px      :     1.114851
      py      :     0.655216
      dz2     :     0.033980  d :     0.219312
      dxz     :     0.100769
      dyz     :     0.010151
      dx2y2   :     0.036042
      dxy     :     0.038370
      f0      :     0.004201  f :     0.023681
      f+1     :     0.003270
      f-1     :     0.000990
      f+2     :     0.004060
      f-2     :     0.000968
      f+3     :     0.004245
      f-3     :     0.005948
  3 H s       :     0.821630  s :     0.821630
      pz      :     0.029315  p :     0.053801
      px      :     0.013527
      py      :     0.010959
  4 H s       :     0.837028  s :     0.837028
      pz      :     0.035523  p :     0.079119
      px      :     0.025141
      py      :     0.018454
  5 H s       :     0.809606  s :     0.809606
      pz      :     0.037962  p :     0.073351
      px      :     0.021584
      py      :     0.013804
  6 H s       :     0.788351  s :     0.788351
      pz      :     0.032751  p :     0.055055
      px      :     0.013920
      py      :     0.008384


                      *****************************
                      * MAYER POPULATION ANALYSIS *
                      *****************************

  NA   - Mulliken gross atomic population
  ZA   - Total nuclear charge
  QA   - Mulliken gross atomic charge
  VA   - Mayer's total valence
  BVA  - Mayer's bonded valence
  FA   - Mayer's free valence

  ATOM       NA         ZA         QA         VA         BVA        FA
  0 O      8.3824     8.0000    -0.3824     1.8617     1.8617     0.0000
  1 C      6.0082     6.0000    -0.0082     4.0609     4.0609     0.0000
  2 C      6.1445     6.0000    -0.1445     3.7794     3.7794     0.0000
  3 H      0.9074     1.0000     0.0926     0.9636     0.9636     0.0000
  4 H      0.8928     1.0000     0.1072     0.9478     0.9478     0.0000
  5 H      0.8350     1.0000     0.1650     0.9585     0.9585     0.0000
  6 H      0.8296     1.0000     0.1704     0.9561     0.9561     0.0000

  Mayer bond orders larger than 0.100000
B(  0-O ,  1-C ) :   1.0482 B(  0-O ,  2-C ) :   0.8226 B(  1-C ,  2-C ) :   1.0665 
B(  1-C ,  3-H ) :   0.9722 B(  1-C ,  4-H ) :   0.9682 B(  2-C ,  5-H ) :   0.9438 
B(  2-C ,  6-H ) :   0.9413 

-------
TIMINGS
-------

Total SCF time: 0 days 0 hours 0 min 3 sec 

Total time                  ....       3.289 sec
Sum of individual times     ....       2.970 sec  ( 90.3%)

Fock matrix formation       ....       2.695 sec  ( 81.9%)
  Split-RI-J                ....       0.283 sec  ( 10.5% of F)
  Chain of spheres X        ....       1.839 sec  ( 68.2% of F)
  XC integration            ....       0.502 sec  ( 18.6% of F)
    Basis function eval.    ....       0.140 sec  ( 27.9% of XC)
    Density eval.           ....       0.103 sec  ( 20.5% of XC)
    XC-Functional eval.     ....       0.030 sec  (  6.0% of XC)
    XC-Potential eval.      ....       0.173 sec  ( 34.5% of XC)
Diagonalization             ....       0.018 sec  (  0.6%)
Density matrix formation    ....       0.002 sec  (  0.1%)
Population analysis         ....       0.003 sec  (  0.1%)
Initial guess               ....       0.017 sec  (  0.5%)
Orbital Transformation      ....       0.000 sec  (  0.0%)
Orbital Orthonormalization  ....       0.000 sec  (  0.0%)
DIIS solution               ....       0.015 sec  (  0.5%)
SOSCF solution              ....       0.017 sec  (  0.5%)
Grid generation             ....       0.204 sec  (  6.2%)

Maximum memory used throughout the entire SCF-calculation: 61.0 MB


-------------------------------------------------------------------------------
                          DFT DISPERSION CORRECTION                            
                                                                               
                              DFTD3 V3.1  Rev 1                                
                          USING Becke-Johnson damping                          
-------------------------------------------------------------------------------
The PBE0 functional is recognized
Active option DFTDOPT                   ...         4   

molecular C6(AA) [au] = 393.842240 


            DFT-D V3
 parameters
 s6 scaling factor         :     1.0000 
 a1 scaling factor         :     0.4145 
 s8 scaling factor         :     1.2177 
 a2 scaling factor         :     4.8593 
 ad hoc parameters k1-k3   :    16.0000     1.3333    -4.0000 

 Edisp/kcal,au: -1.657900630554  -0.002642032546 
 E6   /kcal   :  -1.082396248 
 E8   /kcal   :  -0.575504382 
 % E8         :  34.712839340 

-------------------------   ----------------
Dispersion correction           -0.002642033
-------------------------   ----------------


-------------------------   --------------------
FINAL SINGLE POINT ENERGY      -153.561977027301
-------------------------   --------------------



           ************************************************************
           *        Program running with 8 parallel MPI-processes     *
           *              working on a common directory               *
           ************************************************************
------------------------------------------------------------------------------
                         ORCA SCF GRADIENT CALCULATION
------------------------------------------------------------------------------

 ... reading COSX grid (gridx3)
Gradient of the Kohn-Sham DFT energy:
Kohn-Sham wavefunction type      ... RKS
Hartree-Fock exchange scaling    ...    0.250
Number of operators              ...    1
Number of atoms                  ...    7
Basis set dimensions             ...  117
Integral neglect threshold       ... 2.5e-11
Integral primitive cutoff        ... 2.5e-12
SHARK Integral package           ... ON

Nuc. rep. gradient       (SHARK) ... done (  0.0 sec)
HCore & Overlap gradient (SHARK) ... done (  0.0 sec)
RI-J gradient            (SHARK) ... done (  0.1 sec)
COSX-gradient                    ... done (  0.3 sec)
Exchange-correlation gradient    ... done
Dispersion correction            ... done

------------------
CARTESIAN GRADIENT
------------------

   1   O   :   -0.072910661    0.004481784    0.017559846
   2   C   :   -0.010472819   -0.029545018   -0.110822956
   3   C   :    0.049804308   -0.013147867   -0.074413963
   4   H   :   -0.012801281    0.024322071    0.017828974
   5   H   :    0.049295429    0.043760708    0.082957263
   6   H   :   -0.016037985   -0.012375825    0.024679717
   7   H   :    0.013075428   -0.017509904    0.042271381

Difference to translation invariance:
           :   -0.0000475801   -0.0000140509    0.0000602630

Difference to rotation invariance:
           :    0.0001916145    0.0002023058    0.0003269598

Norm of the cartesian gradient     ...    0.2066001994
RMS gradient                       ...    0.0450838596
MAX gradient                       ...    0.1108229561

-------
TIMINGS
-------

Total SCF gradient time            ...        0.686 sec

One electron gradient       ....       0.010 sec  (  1.4%)
RI-J Coulomb gradient       ....       0.081 sec  ( 11.8%)
COSX gradient               ....       0.306 sec  ( 44.6%)
XC gradient                 ....       0.146 sec  ( 21.4%)

Maximum memory used throughout the entire SCFGRAD-calculation: 35.9 MB

                            ***************************************
                            *     ORCA property calculations      *
                            ***************************************

                                    ---------------------
                                    Active property flags
                                    ---------------------
   (+) Dipole Moment


------------------------------------------------------------------------------
                       ORCA ELECTRIC PROPERTIES CALCULATION
------------------------------------------------------------------------------

Dipole Moment Calculation                       ... on
Quadrupole Moment Calculation                   ... off
Polarizability Calculation                      ... off
GBWName                                         ... ox_gs_D_orca0006.gbw
Electron density                                ... ox_gs_D_orca0006.scfp
The origin for moment calculation is the CENTER OF MASS  = (-0.492526,  0.138065 -0.043964)

-------------
DIPOLE MOMENT
-------------
                                X             Y             Z
Electronic contribution:     -0.42143       1.48502      -0.24929
Nuclear contribution   :      1.02946      -2.69653       0.15342
                        -----------------------------------------
Total Dipole Moment    :      0.60803      -1.21151      -0.09587
                        -----------------------------------------
Magnitude (a.u.)       :      1.35892
Magnitude (Debye)      :      3.45409



--------------------
Rotational spectrum 
--------------------
 
Rotational constants in cm-1:     1.132624     0.428746     0.356374 
Rotational constants in MHz : 33955.204016 12853.470816 10683.825529 

 Dipole components along the rotational axes: 
x,y,z [a.u.] :    -1.257266    -0.515621    -0.008462 
x,y,z [Debye]:    -3.195717    -1.310604    -0.021509 

 

Timings for individual modules:

Sum of individual times         ...        4.608 sec (=   0.077 min)
GTO integral calculation        ...        0.295 sec (=   0.005 min)   6.4 %
SCF iterations                  ...        3.451 sec (=   0.058 min)  74.9 %
SCF Gradient evaluation         ...        0.862 sec (=   0.014 min)  18.7 %
                             ****ORCA TERMINATED NORMALLY****
TOTAL RUN TIME: 0 days 0 hours 0 minutes 4 seconds 953 msec
