
                                 *****************
                                 * O   R   C   A *
                                 *****************

                                            #,                                       
                                            ###                                      
                                            ####                                     
                                            #####                                    
                                            ######                                   
                                           ########,                                 
                                     ,,################,,,,,                         
                               ,,#################################,,                 
                          ,,##########################################,,             
                       ,#########################################, ''#####,          
                    ,#############################################,,   '####,        
                  ,##################################################,,,,####,       
                ,###########''''           ''''###############################       
              ,#####''   ,,,,##########,,,,          '''####'''          '####       
            ,##' ,,,,###########################,,,                        '##       
           ' ,,###''''                  '''############,,,                           
         ,,##''                                '''############,,,,        ,,,,,,###''
      ,#''                                            '''#######################'''  
     '                                                          ''''####''''         
             ,#######,   #######,   ,#######,      ##                                
            ,#'     '#,  ##    ##  ,#'     '#,    #''#        ######   ,####,        
            ##       ##  ##   ,#'  ##            #'  '#       #        #'  '#        
            ##       ##  #######   ##           ,######,      #####,   #    #        
            '#,     ,#'  ##    ##  '#,     ,#' ,#      #,         ##   #,  ,#        
             '#######'   ##     ##  '#######'  #'      '#     #####' # '####'        



                  #######################################################
                  #                        -***-                        #
                  #          Department of theory and spectroscopy      #
                  #    Directorship and core code : Frank Neese         #
                  #        Max Planck Institute fuer Kohlenforschung    #
                  #                Kaiser Wilhelm Platz 1               #
                  #                 D-45470 Muelheim/Ruhr               #
                  #                      Germany                        #
                  #                                                     #
                  #                  All rights reserved                #
                  #                        -***-                        #
                  #######################################################


                         Program Version 5.0.2 -  RELEASE  -


 With contributions from (in alphabetic order):
   Daniel Aravena         : Magnetic Suceptibility
   Michael Atanasov       : Ab Initio Ligand Field Theory (pilot matlab implementation)
   Alexander A. Auer      : GIAO ZORA, VPT2 properties, NMR spectrum
   Ute Becker             : Parallelization
   Giovanni Bistoni       : ED, misc. LED, open-shell LED, HFLD
   Martin Brehm           : Molecular dynamics
   Dmytro Bykov           : SCF Hessian
   Vijay G. Chilkuri      : MRCI spin determinant printing, contributions to CSF-ICE
   Dipayan Datta          : RHF DLPNO-CCSD density
   Achintya Kumar Dutta   : EOM-CC, STEOM-CC
   Dmitry Ganyushin       : Spin-Orbit,Spin-Spin,Magnetic field MRCI
   Miquel Garcia          : C-PCM and meta-GGA Hessian, CC/C-PCM, Gaussian charge scheme
   Yang Guo               : DLPNO-NEVPT2, F12-NEVPT2, CIM, IAO-localization
   Andreas Hansen         : Spin unrestricted coupled pair/coupled cluster methods
   Benjamin Helmich-Paris : MC-RPA, TRAH-SCF, COSX integrals
   Lee Huntington         : MR-EOM, pCC
   Robert Izsak           : Overlap fitted RIJCOSX, COSX-SCS-MP3, EOM
   Marcus Kettner         : VPT2
   Christian Kollmar      : KDIIS, OOCD, Brueckner-CCSD(T), CCSD density, CASPT2, CASPT2-K
   Simone Kossmann        : Meta GGA functionals, TD-DFT gradient, OOMP2, MP2 Hessian
   Martin Krupicka        : Initial AUTO-CI
   Lucas Lang             : DCDCAS
   Marvin Lechner         : AUTO-CI (C++ implementation), FIC-MRCC
   Dagmar Lenk            : GEPOL surface, SMD
   Dimitrios Liakos       : Extrapolation schemes; Compound Job, initial MDCI parallelization
   Dimitrios Manganas     : Further ROCIS development; embedding schemes
   Dimitrios Pantazis     : SARC Basis sets
   Anastasios Papadopoulos: AUTO-CI, single reference methods and gradients
   Taras Petrenko         : DFT Hessian,TD-DFT gradient, ASA, ECA, R-Raman, ABS, FL, XAS/XES, NRVS
   Peter Pinski           : DLPNO-MP2, DLPNO-MP2 Gradient
   Christoph Reimann      : Effective Core Potentials
   Marius Retegan         : Local ZFS, SOC
   Christoph Riplinger    : Optimizer, TS searches, QM/MM, DLPNO-CCSD(T), (RO)-DLPNO pert. Triples
   Tobias Risthaus        : Range-separated hybrids, TD-DFT gradient, RPA, STAB
   Michael Roemelt        : Original ROCIS implementation
   Masaaki Saitow         : Open-shell DLPNO-CCSD energy and density
   Barbara Sandhoefer     : DKH picture change effects
   Avijit Sen             : IP-ROCIS
   Kantharuban Sivalingam : CASSCF convergence, NEVPT2, FIC-MRCI
   Bernardo de Souza      : ESD, SOC TD-DFT
   Georgi Stoychev        : AutoAux, RI-MP2 NMR, DLPNO-MP2 response
   Willem Van den Heuvel  : Paramagnetic NMR
   Boris Wezisla          : Elementary symmetry handling
   Frank Wennmohs         : Technical directorship


 We gratefully acknowledge several colleagues who have allowed us to
 interface, adapt or use parts of their codes:
   Stefan Grimme, W. Hujo, H. Kruse, P. Pracht,  : VdW corrections, initial TS optimization,
                  C. Bannwarth, S. Ehlert          DFT functionals, gCP, sTDA/sTD-DF
   Ed Valeev, F. Pavosevic, A. Kumar             : LibInt (2-el integral package), F12 methods
   Garnet Chan, S. Sharma, J. Yang, R. Olivares  : DMRG
   Ulf Ekstrom                                   : XCFun DFT Library
   Mihaly Kallay                                 : mrcc  (arbitrary order and MRCC methods)
   Jiri Pittner, Ondrej Demel                    : Mk-CCSD
   Frank Weinhold                                : gennbo (NPA and NBO analysis)
   Christopher J. Cramer and Donald G. Truhlar   : smd solvation model
   Lars Goerigk                                  : TD-DFT with DH, B97 family of functionals
   V. Asgeirsson, H. Jonsson                     : NEB implementation
   FAccTs GmbH                                   : IRC, NEB, NEB-TS, DLPNO-Multilevel, CI-OPT
                                                   MM, QMMM, 2- and 3-layer-ONIOM, Crystal-QMMM,
                                                   LR-CPCM, SF, NACMEs, symmetry and pop. for TD-DFT,
                                                   nearIR, NL-DFT gradient (VV10), updates on ESD,
                                                   ML-optimized integration grids
   S Lehtola, MJT Oliveira, MAL Marques          : LibXC Library
   Liviu Ungur et al                             : ANISO software


 Your calculation uses the libint2 library for the computation of 2-el integrals
 For citations please refer to: http://libint.valeyev.net

 Your ORCA version has been built with support for libXC version: 5.1.0
 For citations please refer to: https://tddft.org/programs/libxc/

 This ORCA versions uses:
   CBLAS   interface :  Fast vector & matrix operations
   LAPACKE interface :  Fast linear algebra routines
   SCALAPACK package :  Parallel linear algebra routines
   Shared memory     :  Shared parallel matrices
   BLAS/LAPACK       :  OpenBLAS 0.3.15  USE64BITINT DYNAMIC_ARCH NO_AFFINITY SkylakeX SINGLE_THREADED
        Core in use  :  SkylakeX
   Copyright (c) 2011-2014, The OpenBLAS Project


Your calculation utilizes the atom-pairwise dispersion correction
with the Becke-Johnson damping scheme (D3BJ)
Cite in your paper:
S.Grimme, S.Ehrlich, L.Goerigk, J Comput Chem, (2011), 32, 1456–1465 
S.Grimme, J.Antony, S.Ehrlich and H.Krieg, J.Chem.Phys., 132, (2010), 154104 
   

================================================================================

----- Orbital basis set information -----
Your calculation utilizes the basis: def2-TZVP
   F. Weigend and R. Ahlrichs, Phys. Chem. Chem. Phys. 7, 3297 (2005).

----- AuxJ basis set information -----
Your calculation utilizes the auxiliary basis: def2/J
   F. Weigend, Phys. Chem. Chem. Phys. 8, 1057 (2006).

================================================================================
                                        WARNINGS
                       Please study these warnings very carefully!
================================================================================


INFO   : the flag for use of the SHARK integral package has been found!

================================================================================
                                       INPUT FILE
================================================================================
NAME = ox_gs_A_orca0023.inp
|  1> ! engrad PBE0 D3BJ def2-TZVP  
|  2> %pal nprocs 8 end
|  3> %maxcore 3000
|  4>  
|  5> *xyz 0 1 
|  6> O   0.010173231793361156 0.7291067727357848 -0.07111257547988371
|  7> C   -0.7612182342121263 -0.5010978901807197 0.08435708175362824
|  8> C   0.7729715278474725 -0.44741912206583084 0.07399720694450129
|  9> H   -1.259954514617619 -0.7113350200664131 0.9961324238634829
| 10> H   -1.2368772678157671 -0.7201332177163229 -0.9294931539041804
| 11> H   1.220041907330762 -0.7374108465482169 -0.8736673426234179
| 12> H   1.3592937020235065 -0.738199188690957 0.9481246318345286
| 13> *
| 14> 
| 15>                          ****END OF INPUT****
================================================================================

                     *******************************
                     * Energy+Gradient Calculation *
                     *******************************

---------------------------------
CARTESIAN COORDINATES (ANGSTROEM)
---------------------------------
  O      0.010173    0.729107   -0.071113
  C     -0.761218   -0.501098    0.084357
  C      0.772972   -0.447419    0.073997
  H     -1.259955   -0.711335    0.996132
  H     -1.236877   -0.720133   -0.929493
  H      1.220042   -0.737411   -0.873667
  H      1.359294   -0.738199    0.948125

----------------------------
CARTESIAN COORDINATES (A.U.)
----------------------------
  NO LB      ZA    FRAG     MASS         X           Y           Z
   0 O     8.0000    0    15.999    0.019225    1.377812   -0.134383
   1 C     6.0000    0    12.011   -1.438494   -0.946938    0.159412
   2 C     6.0000    0    12.011    1.460704   -0.845500    0.139834
   3 H     1.0000    0     1.008   -2.380969   -1.344228    1.882417
   4 H     1.0000    0     1.008   -2.337359   -1.360855   -1.756488
   5 H     1.0000    0     1.008    2.305545   -1.393505   -1.650992
   6 H     1.0000    0     1.008    2.568693   -1.394994    1.791696

--------------------------------
INTERNAL COORDINATES (ANGSTROEM)
--------------------------------
 O      0   0   0     0.000000000000     0.00000000     0.00000000
 C      1   0   0     1.460348972269     0.00000000     0.00000000
 C      1   2   0     1.409656437064    64.64589955     0.00000000
 H      2   1   3     1.060316840692   120.46651130   106.22538945
 H      2   1   3     1.141104855524   106.69618901   251.13748526
 H      3   1   2     1.087214432845   110.81821255   106.33011281
 H      3   1   2     1.091982368915   126.52675313   251.62223638

---------------------------
INTERNAL COORDINATES (A.U.)
---------------------------
 O      0   0   0     0.000000000000     0.00000000     0.00000000
 C      1   0   0     2.759659617542     0.00000000     0.00000000
 C      1   2   0     2.663864608971    64.64589955     0.00000000
 H      2   1   3     2.003708444092   120.46651130   106.22538945
 H      2   1   3     2.156375667028   106.69618901   251.13748526
 H      3   1   2     2.054537526924   110.81821255   106.33011281
 H      3   1   2     2.063547620321   126.52675313   251.62223638

---------------------
BASIS SET INFORMATION
---------------------
There are 3 groups of distinct atoms

 Group   1 Type O   : 11s6p2d1f contracted to 5s3p2d1f pattern {62111/411/11/1}
 Group   2 Type C   : 11s6p2d1f contracted to 5s3p2d1f pattern {62111/411/11/1}
 Group   3 Type H   : 5s1p contracted to 3s1p pattern {311/1}

Atom   0O    basis set group =>   1
Atom   1C    basis set group =>   2
Atom   2C    basis set group =>   2
Atom   3H    basis set group =>   3
Atom   4H    basis set group =>   3
Atom   5H    basis set group =>   3
Atom   6H    basis set group =>   3
---------------------------------
AUXILIARY/J BASIS SET INFORMATION
---------------------------------
There are 3 groups of distinct atoms

 Group   1 Type O   : 12s5p4d2f1g contracted to 6s4p3d1f1g pattern {711111/2111/211/2/1}
 Group   2 Type C   : 12s5p4d2f1g contracted to 6s4p3d1f1g pattern {711111/2111/211/2/1}
 Group   3 Type H   : 5s2p1d contracted to 3s1p1d pattern {311/2/1}

Atom   0O    basis set group =>   1
Atom   1C    basis set group =>   2
Atom   2C    basis set group =>   2
Atom   3H    basis set group =>   3
Atom   4H    basis set group =>   3
Atom   5H    basis set group =>   3
Atom   6H    basis set group =>   3


           ************************************************************
           *        Program running with 8 parallel MPI-processes     *
           *              working on a common directory               *
           ************************************************************
------------------------------------------------------------------------------
                           ORCA GTO INTEGRAL CALCULATION
                           -- RI-GTO INTEGRALS CHOSEN --
------------------------------------------------------------------------------
------------------------------------------------------------------------------
                   ___                                                        
                  /   \      - P O W E R E D   B Y -                         
                 /     \                                                     
                 |  |  |   _    _      __       _____    __    __             
                 |  |  |  | |  | |    /  \     |  _  \  |  |  /  |          
                  \  \/   | |  | |   /    \    | | | |  |  | /  /          
                 / \  \   | |__| |  /  /\  \   | |_| |  |  |/  /          
                |  |  |   |  __  | /  /__\  \  |    /   |      \           
                |  |  |   | |  | | |   __   |  |    \   |  |\   \          
                \     /   | |  | | |  |  |  |  | |\  \  |  | \   \       
                 \___/    |_|  |_| |__|  |__|  |_| \__\ |__|  \__/        
                                                                              
                      - O R C A' S   B I G   F R I E N D -                    
                                      &                                       
                       - I N T E G R A L  F E E D E R -                       
                                                                              
 v1 FN, 2020, v2 2021                                                         
------------------------------------------------------------------------------


Reading SHARK input file ox_gs_A_orca0023.SHARKINP.tmp ... ok
----------------------
SHARK INTEGRAL PACKAGE
----------------------

Number of atoms                             ...      7
Number of basis functions                   ...    117
Number of shells                            ...     49
Maximum angular momentum                    ...      3
Integral batch strategy                     ... SHARK/LIBINT Hybrid
RI-J (if used) integral strategy            ... SPLIT-RIJ (Revised 2003 algorithm where possible)
Printlevel                                  ...      1
Contraction scheme used                     ... SEGMENTED contraction
Coulomb Range Separation                    ... NOT USED
Exchange Range Separation                   ... NOT USED
Finite Nucleus Model                        ... NOT USED
Auxiliary Coulomb fitting basis             ... AVAILABLE
   # of basis functions in Aux-J            ...    191
   # of shells in Aux-J                     ...     65
   Maximum angular momentum in Aux-J        ...      4
Auxiliary J/K fitting basis                 ... NOT available
Auxiliary Correlation fitting basis         ... NOT available
Auxiliary 'external' fitting basis          ... NOT available
Integral threshold                          ...     2.500000e-11
Primitive cut-off                           ...     2.500000e-12
Primitive pair pre-selection threshold      ...     2.500000e-12

Calculating pre-screening integrals         ... done (  0.0 sec) Dimension = 49
Organizing shell pair data                  ... done (  0.0 sec)
Shell pair information
Total number of shell pairs                 ...      1225
Shell pairs after pre-screening             ...      1220
Total number of primitive shell pairs       ...      3648
Primitive shell pairs kept                  ...      3145
          la=0 lb=0:    373 shell pairs
          la=1 lb=0:    351 shell pairs
          la=1 lb=1:     91 shell pairs
          la=2 lb=0:    162 shell pairs
          la=2 lb=1:     78 shell pairs
          la=2 lb=2:     21 shell pairs
          la=3 lb=0:     81 shell pairs
          la=3 lb=1:     39 shell pairs
          la=3 lb=2:     18 shell pairs
          la=3 lb=3:      6 shell pairs

Calculating one electron integrals          ... done (  0.0 sec)
Calculating RI/J V-Matrix + Cholesky decomp.... done (  0.0 sec)
Calculating Nuclear repulsion               ... done (  0.0 sec) ENN=     74.262483856341 Eh

SHARK setup successfully completed in   0.1 seconds

Maximum memory used throughout the entire GTOINT-calculation: 14.9 MB


           ************************************************************
           *        Program running with 8 parallel MPI-processes     *
           *              working on a common directory               *
           ************************************************************
-------------------------------------------------------------------------------
                                 ORCA SCF
-------------------------------------------------------------------------------

------------
SCF SETTINGS
------------
Hamiltonian:
 Density Functional     Method          .... DFT(GTOs)
 Exchange Functional    Exchange        .... PBE
   PBE kappa parameter   XKappa         ....  0.804000
   PBE mue parameter    XMuePBE         ....  0.219520
 Correlation Functional Correlation     .... PBE
   PBE beta parameter  CBetaPBE         ....  0.066725
 LDA part of GGA corr.  LDAOpt          .... PW91-LDA
 Gradients option       PostSCFGGA      .... off
 Hybrid DFT is turned on
   Fraction HF Exchange ScalHFX         ....  0.250000
   Scaling of DF-GGA-X  ScalDFX         ....  0.750000
   Scaling of DF-GGA-C  ScalDFC         ....  1.000000
   Scaling of DF-LDA-C  ScalLDAC        ....  1.000000
   Perturbative correction              ....  0.000000
   Density functional embedding theory  .... OFF
   NL short-range parameter             ....  6.900000
 RI-approximation to the Coulomb term is turned on
   Number of AuxJ basis functions       .... 191
   RIJ-COSX (HFX calculated with COS-X)).... on


General Settings:
 Integral files         IntName         .... ox_gs_A_orca0023
 Hartree-Fock type      HFTyp           .... RHF
 Total Charge           Charge          ....    0
 Multiplicity           Mult            ....    1
 Number of Electrons    NEL             ....   24
 Basis Dimension        Dim             ....  117
 Nuclear Repulsion      ENuc            ....     74.2624838563 Eh

Convergence Acceleration:
 DIIS                   CNVDIIS         .... on
   Start iteration      DIISMaxIt       ....    12
   Startup error        DIISStart       ....  0.200000
   # of expansion vecs  DIISMaxEq       ....     5
   Bias factor          DIISBfac        ....   1.050
   Max. coefficient     DIISMaxC        ....  10.000
 Trust-Rad. Augm. Hess. CNVTRAH         .... auto
   Auto Start mean grad. ratio tolernc. ....  1.125000
   Auto Start start iteration           ....    20
   Auto Start num. interpolation iter.  ....    10
   Max. Number of Micro iterations      ....    16
   Max. Number of Macro iterations      .... Maxiter - #DIIS iter
   Number of Davidson start vectors     ....     2
   Converg. threshold I  (grad. norm)   ....   1.000e-05
   Converg. threshold II (energy diff.) ....   1.000e-08
   Grad. Scal. Fac. for Micro threshold ....   0.100
   Minimum threshold for Micro iter.    ....   0.010
   NR start threshold (gradient norm)   ....   0.001
   Initial trust radius                 ....   0.400
   Minimum AH scaling param. (alpha)    ....   1.000
   Maximum AH scaling param. (alpha)    .... 1000.000
   Orbital update algorithm             .... Taylor
   White noise on init. David. guess    .... on
   Maximum white noise                  ....   0.010
   Quad. conv. algorithm                .... NR
 SOSCF                  CNVSOSCF        .... on
   Start iteration      SOSCFMaxIt      ....   150
   Startup grad/error   SOSCFStart      ....  0.003300
 Level Shifting         CNVShift        .... on
   Level shift para.    LevelShift      ....    0.2500
   Turn off err/grad.   ShiftErr        ....    0.0010
 Zerner damping         CNVZerner       .... off
 Static damping         CNVDamp         .... on
   Fraction old density DampFac         ....    0.7000
   Max. Damping (<1)    DampMax         ....    0.9800
   Min. Damping (>=0)   DampMin         ....    0.0000
   Turn off err/grad.   DampErr         ....    0.1000
 Fernandez-Rico         CNVRico         .... off

SCF Procedure:
 Maximum # iterations   MaxIter         ....   125
 SCF integral mode      SCFMode         .... Direct
   Integral package                     .... SHARK and LIBINT hybrid scheme
 Reset frequency        DirectResetFreq ....    20
 Integral Threshold     Thresh          ....  2.500e-11 Eh
 Primitive CutOff       TCut            ....  2.500e-12 Eh

Convergence Tolerance:
 Convergence Check Mode ConvCheckMode   .... Total+1el-Energy
 Convergence forced     ConvForced      .... 0
 Energy Change          TolE            ....  1.000e-08 Eh
 1-El. energy change                    ....  1.000e-05 Eh
 Orbital Gradient       TolG            ....  1.000e-05
 Orbital Rotation angle TolX            ....  1.000e-05
 DIIS Error             TolErr          ....  5.000e-07


Diagonalization of the overlap matrix:
Smallest eigenvalue                        ... 5.939e-04
Time for diagonalization                   ...    0.001 sec
Threshold for overlap eigenvalues          ... 1.000e-08
Number of eigenvalues below threshold      ... 0
Time for construction of square roots      ...    0.001 sec
Total time needed                          ...    0.003 sec

Time for model grid setup =    0.022 sec

------------------------------
INITIAL GUESS: MODEL POTENTIAL
------------------------------
Loading Hartree-Fock densities                     ... done
Calculating cut-offs                               ... done
Initializing the effective Hamiltonian             ... done
Setting up the integral package (SHARK)            ... done
Starting the Coulomb interaction                   ... done (   0.0 sec)
Reading the grid                                   ... done
Mapping shells                                     ... done
Starting the XC term evaluation                    ... done (   0.0 sec)
  promolecular density results
     # of electrons  =     23.997679838
     EX              =    -19.517911995
     EC              =     -0.779080610
     EX+EC           =    -20.296992605
Transforming the Hamiltonian                       ... done (   0.0 sec)
Diagonalizing the Hamiltonian                      ... done (   0.0 sec)
Back transforming the eigenvectors                 ... done (   0.0 sec)
Now organizing SCF variables                       ... done
                      ------------------
                      INITIAL GUESS DONE (   0.0 sec)
                      ------------------
-------------------
DFT GRID GENERATION
-------------------

General Integration Accuracy     IntAcc      ... 4.388
Radial Grid Type                 RadialGrid  ... OptM3 with GC (2021)
Angular Grid (max. ang.)         AngularGrid ... 4 (Lebedev-302)
Angular grid pruning method      GridPruning ... 4 (adaptive)
Weight generation scheme         WeightScheme... Becke
Basis function cutoff            BFCut       ... 1.0000e-11
Integration weight cutoff        WCut        ... 1.0000e-14
Angular grids for H and He will be reduced by one unit
Partially contracted basis set               ... off
Rotationally invariant grid construction     ... off

Total number of grid points                  ...    31334
Total number of batches                      ...      493
Average number of points per batch           ...       63
Average number of grid points per atom       ...     4476
Time for grid setup =    0.109 sec

--------------------
COSX GRID GENERATION
--------------------

GRIDX 1
-------
General Integration Accuracy     IntAcc      ... 3.816
Radial Grid Type                 RadialGrid  ... OptM3 with GC (2021)
Angular Grid (max. ang.)         AngularGrid ... 1 (Lebedev-50)
Angular grid pruning method      GridPruning ... 4 (adaptive)
Weight generation scheme         WeightScheme... Becke
Basis function cutoff            BFCut       ... 1.0000e-11
Integration weight cutoff        WCut        ... 1.0000e-14
Angular grids for H and He will be reduced by one unit
Partially contracted basis set               ... on
Rotationally invariant grid construction     ... off

Total number of grid points                  ...     4037
Total number of batches                      ...       67
Average number of points per batch           ...       60
Average number of grid points per atom       ...      577
UseSFitting                                  ... on

GRIDX 2
-------
General Integration Accuracy     IntAcc      ... 4.020
Radial Grid Type                 RadialGrid  ... OptM3 with GC (2021)
Angular Grid (max. ang.)         AngularGrid ... 2 (Lebedev-110)
Angular grid pruning method      GridPruning ... 4 (adaptive)
Weight generation scheme         WeightScheme... Becke
Basis function cutoff            BFCut       ... 1.0000e-11
Integration weight cutoff        WCut        ... 1.0000e-14
Angular grids for H and He will be reduced by one unit
Partially contracted basis set               ... on
Rotationally invariant grid construction     ... off

Total number of grid points                  ...     8724
Total number of batches                      ...      140
Average number of points per batch           ...       62
Average number of grid points per atom       ...     1246
UseSFitting                                  ... on

GRIDX 3
-------
General Integration Accuracy     IntAcc      ... 4.338
Radial Grid Type                 RadialGrid  ... OptM3 with GC (2021)
Angular Grid (max. ang.)         AngularGrid ... 3 (Lebedev-194)
Angular grid pruning method      GridPruning ... 4 (adaptive)
Weight generation scheme         WeightScheme... Becke
Basis function cutoff            BFCut       ... 1.0000e-11
Integration weight cutoff        WCut        ... 1.0000e-14
Angular grids for H and He will be reduced by one unit
Partially contracted basis set               ... on
Rotationally invariant grid construction     ... off

Total number of grid points                  ...    19255
Total number of batches                      ...      304
Average number of points per batch           ...       63
Average number of grid points per atom       ...     2751
UseSFitting                                  ... on

Time for X-Grid setup             =    0.073 sec

--------------
SCF ITERATIONS
--------------
ITER       Energy         Delta-E        Max-DP      RMS-DP      [F,P]     Damp
               ***  Starting incremental Fock matrix formation  ***
  0   -153.6031400660   0.000000000000 0.03266575  0.00110788  0.1730634 0.7000
  1   -153.6296607070  -0.026520641070 0.01760071  0.00081395  0.0719656 0.7000
                               ***Turning on DIIS***
  2   -153.6404522518  -0.010791544720 0.02360065  0.00137623  0.0303297 0.0000
  3   -153.6582210687  -0.017768816938 0.01371006  0.00061246  0.0390697 0.0000
  4   -153.6614915498  -0.003270481128 0.00373235  0.00016626  0.0083687 0.0000
  5   -153.6616732068  -0.000181657013 0.00123787  0.00005571  0.0033162 0.0000
                      *** Initiating the SOSCF procedure ***
                           *** Shutting down DIIS ***
                      *** Re-Reading the Fockian *** 
                      *** Removing any level shift *** 
ITER      Energy       Delta-E        Grad      Rot      Max-DP    RMS-DP
  6   -153.66169289  -0.0000196848  0.000097  0.000097  0.000828  0.000026
               *** Restarting incremental Fock matrix formation ***
  7   -153.66168527   0.0000076195  0.000046  0.000068  0.000089  0.000004
  8   -153.66168525   0.0000000266  0.000075  0.000054  0.000055  0.000002
  9   -153.66168531  -0.0000000598  0.000006  0.000009  0.000016  0.000001
 10   -153.66168530   0.0000000017  0.000007  0.000005  0.000010  0.000000
                  ***Gradient check signals convergence***
              ***Rediagonalizing the Fockian in SOSCF/NRSCF***

               *****************************************************
               *                     SUCCESS                       *
               *           SCF CONVERGED AFTER  11 CYCLES          *
               *****************************************************

Old exchange energy                            =     -4.984436393 Eh
New exchange energy                            =     -4.984441960 Eh
Exchange energy change after final integration =     -0.000005566 Eh
Total energy after final integration           =   -153.661690873 Eh
Final COS-X integration done in                =     0.264 sec

----------------
TOTAL SCF ENERGY
----------------

Total Energy       :         -153.66169087 Eh           -4181.34718 eV

Components:
Nuclear Repulsion  :           74.26248386 Eh            2020.78492 eV
Electronic Energy  :         -227.92417473 Eh           -6202.13210 eV
One Electron Energy:         -355.25118729 Eh           -9666.87626 eV
Two Electron Energy:          127.32701256 Eh            3464.74416 eV
Max COSX asymmetry :            0.00000147 Eh               0.00004 eV

Virial components:
Potential Energy   :         -306.45439146 Eh           -8339.04794 eV
Kinetic Energy     :          152.79270059 Eh            4157.70076 eV
Virial Ratio       :            2.00568738


DFT components:
N(Alpha)           :       12.000002645199 electrons
N(Beta)            :       12.000002645199 electrons
N(Total)           :       24.000005290398 electrons
E(X)               :      -14.928345493422 Eh       
E(C)               :       -0.788053215073 Eh       
E(XC)              :      -15.716398708495 Eh       
DFET-embed. en.    :        0.000000000000 Eh       

---------------
SCF CONVERGENCE
---------------

  Last Energy change         ...   -2.6498e-09  Tolerance :   1.0000e-08
  Last MAX-Density change    ...    6.6613e-16  Tolerance :   1.0000e-07
  Last RMS-Density change    ...    1.7564e-17  Tolerance :   5.0000e-09
  Last Orbital Gradient      ...    6.1153e-07  Tolerance :   1.0000e-05
  Last Orbital Rotation      ...    1.4091e-06  Tolerance :   1.0000e-05

             **** THE GBW FILE WAS UPDATED (ox_gs_A_orca0023.gbw) ****
             **** DENSITY ox_gs_A_orca0023.scfp WAS UPDATED ****
             **** ENERGY FILE WAS UPDATED (ox_gs_A_orca0023.en.tmp) ****
             **** THE GBW FILE WAS UPDATED (ox_gs_A_orca0023.gbw) ****
             **** DENSITY ox_gs_A_orca0023.scfp WAS UPDATED ****
----------------
ORBITAL ENERGIES
----------------

  NO   OCC          E(Eh)            E(eV) 
   0   2.0000     -19.227145      -523.1972 
   1   2.0000     -10.283224      -279.8207 
   2   2.0000     -10.279715      -279.7253 
   3   2.0000      -1.098673       -29.8964 
   4   2.0000      -0.693164       -18.8619 
   5   2.0000      -0.655486       -17.8367 
   6   2.0000      -0.526388       -14.3238 
   7   2.0000      -0.492162       -13.3924 
   8   2.0000      -0.431496       -11.7416 
   9   2.0000      -0.393364       -10.7040 
  10   2.0000      -0.315685        -8.5902 
  11   2.0000      -0.291476        -7.9315 
  12   0.0000       0.059897         1.6299 
  13   0.0000       0.066928         1.8212 
  14   0.0000       0.077375         2.1055 
  15   0.0000       0.099819         2.7162 
  16   0.0000       0.107320         2.9203 
  17   0.0000       0.152596         4.1523 
  18   0.0000       0.191893         5.2217 
  19   0.0000       0.203772         5.5449 
  20   0.0000       0.265597         7.2273 
  21   0.0000       0.269110         7.3229 
  22   0.0000       0.301433         8.2024 
  23   0.0000       0.326820         8.8932 
  24   0.0000       0.373704        10.1690 
  25   0.0000       0.385810        10.4984 
  26   0.0000       0.403698        10.9852 
  27   0.0000       0.419075        11.4036 
  28   0.0000       0.442056        12.0290 
  29   0.0000       0.461768        12.5653 
  30   0.0000       0.486147        13.2287 
  31   0.0000       0.519830        14.1453 
  32   0.0000       0.526727        14.3330 
  33   0.0000       0.694029        18.8855 
  34   0.0000       0.709764        19.3137 
  35   0.0000       0.723675        19.6922 
  36   0.0000       0.829243        22.5648 
  37   0.0000       0.874197        23.7881 
  38   0.0000       0.906815        24.6757 
  39   0.0000       0.922103        25.0917 
  40   0.0000       1.009434        27.4681 
  41   0.0000       1.018519        27.7153 
  42   0.0000       1.040447        28.3120 
  43   0.0000       1.078580        29.3497 
  44   0.0000       1.134390        30.8683 
  45   0.0000       1.362292        37.0699 
  46   0.0000       1.456644        39.6373 
  47   0.0000       1.494806        40.6757 
  48   0.0000       1.509675        41.0803 
  49   0.0000       1.515596        41.2415 
  50   0.0000       1.579495        42.9803 
  51   0.0000       1.634210        44.4691 
  52   0.0000       1.656789        45.0835 
  53   0.0000       1.704233        46.3745 
  54   0.0000       1.783779        48.5391 
  55   0.0000       1.813956        49.3603 
  56   0.0000       1.840962        50.0951 
  57   0.0000       1.904193        51.8157 
  58   0.0000       1.916994        52.1640 
  59   0.0000       1.932730        52.5922 
  60   0.0000       2.128778        57.9270 
  61   0.0000       2.149666        58.4954 
  62   0.0000       2.192927        59.6726 
  63   0.0000       2.230343        60.6907 
  64   0.0000       2.247193        61.1492 
  65   0.0000       2.422593        65.9221 
  66   0.0000       2.440699        66.4148 
  67   0.0000       2.485591        67.6364 
  68   0.0000       2.506519        68.2058 
  69   0.0000       2.559128        69.6374 
  70   0.0000       2.594841        70.6092 
  71   0.0000       2.620842        71.3167 
  72   0.0000       2.662169        72.4413 
  73   0.0000       2.709507        73.7294 
  74   0.0000       2.760458        75.1159 
  75   0.0000       2.820740        76.7562 
  76   0.0000       2.852435        77.6187 
  77   0.0000       2.928249        79.6817 
  78   0.0000       3.003297        81.7239 
  79   0.0000       3.027126        82.3723 
  80   0.0000       3.064249        83.3825 
  81   0.0000       3.100521        84.3695 
  82   0.0000       3.126329        85.0717 
  83   0.0000       3.219506        87.6072 
  84   0.0000       3.249016        88.4102 
  85   0.0000       3.300904        89.8222 
  86   0.0000       3.369681        91.6937 
  87   0.0000       3.410220        92.7968 
  88   0.0000       3.551162        96.6320 
  89   0.0000       3.594559        97.8129 
  90   0.0000       3.640002        99.0495 
  91   0.0000       3.689898       100.4072 
  92   0.0000       3.818717       103.9126 
  93   0.0000       3.962250       107.8183 
  94   0.0000       3.980717       108.3208 
  95   0.0000       4.047223       110.1305 
  96   0.0000       4.236252       115.2743 
  97   0.0000       4.290491       116.7502 
  98   0.0000       4.345162       118.2379 
  99   0.0000       4.515640       122.8768 
 100   0.0000       4.669542       127.0647 
 101   0.0000       4.836736       131.6143 
 102   0.0000       5.301434       144.2593 
 103   0.0000       5.461289       148.6092 
 104   0.0000       5.681370       154.5979 
 105   0.0000       5.762260       156.7991 
 106   0.0000       5.808861       158.0671 
 107   0.0000       5.869953       159.7295 
 108   0.0000       6.036302       164.2561 
 109   0.0000       6.626403       180.3136 
 110   0.0000       6.647321       180.8828 
 111   0.0000       6.788043       184.7120 
 112   0.0000       6.957335       189.3187 
 113   0.0000       7.189776       195.6438 
 114   0.0000      22.213009       604.4467 
 115   0.0000      22.334925       607.7642 
 116   0.0000      43.856162      1193.3868 

                    ********************************
                    * MULLIKEN POPULATION ANALYSIS *
                    ********************************

-----------------------
MULLIKEN ATOMIC CHARGES
-----------------------
   0 O :   -0.304184
   1 C :   -0.106865
   2 C :   -0.067059
   3 H :    0.130279
   4 H :    0.123244
   5 H :    0.104534
   6 H :    0.120051
Sum of atomic charges:   -0.0000000

--------------------------------
MULLIKEN REDUCED ORBITAL CHARGES
--------------------------------
  0 O s       :     3.853465  s :     3.853465
      pz      :     1.824622  p :     4.405662
      px      :     1.292833
      py      :     1.288208
      dz2     :     0.005550  d :     0.042946
      dxz     :     0.002932
      dyz     :     0.006876
      dx2y2   :     0.011917
      dxy     :     0.015672
      f0      :     0.000263  f :     0.002110
      f+1     :     0.000197
      f-1     :     0.000423
      f+2     :     0.000098
      f-2     :     0.000234
      f+3     :     0.000330
      f-3     :     0.000565
  1 C s       :     3.250387  s :     3.250387
      pz      :     1.036645  p :     2.741746
      px      :     0.909602
      py      :     0.795499
      dz2     :     0.008855  d :     0.103911
      dxz     :     0.023700
      dyz     :     0.027615
      dx2y2   :     0.025863
      dxy     :     0.017877
      f0      :     0.001508  f :     0.010820
      f+1     :     0.001398
      f-1     :     0.000629
      f+2     :     0.001012
      f-2     :     0.001549
      f+3     :     0.002186
      f-3     :     0.002538
  2 C s       :     3.225051  s :     3.225051
      pz      :     1.036206  p :     2.719615
      px      :     0.895673
      py      :     0.787736
      dz2     :     0.006536  d :     0.110835
      dxz     :     0.025307
      dyz     :     0.030950
      dx2y2   :     0.027903
      dxy     :     0.020138
      f0      :     0.001445  f :     0.011558
      f+1     :     0.001401
      f-1     :     0.000805
      f+2     :     0.001010
      f-2     :     0.001836
      f+3     :     0.002255
      f-3     :     0.002806
  3 H s       :     0.847113  s :     0.847113
      pz      :     0.011488  p :     0.022608
      px      :     0.006749
      py      :     0.004371
  4 H s       :     0.856801  s :     0.856801
      pz      :     0.011224  p :     0.019955
      px      :     0.004942
      py      :     0.003789
  5 H s       :     0.873886  s :     0.873886
      pz      :     0.011238  p :     0.021580
      px      :     0.005762
      py      :     0.004581
  6 H s       :     0.858763  s :     0.858763
      pz      :     0.009888  p :     0.021186
      px      :     0.007222
      py      :     0.004076


                     *******************************
                     * LOEWDIN POPULATION ANALYSIS *
                     *******************************

----------------------
LOEWDIN ATOMIC CHARGES
----------------------
   0 O :    0.113855
   1 C :   -0.266729
   2 C :   -0.311470
   3 H :    0.107766
   4 H :    0.130614
   5 H :    0.112704
   6 H :    0.113259

-------------------------------
LOEWDIN REDUCED ORBITAL CHARGES
-------------------------------
  0 O s       :     3.389044  s :     3.389044
      pz      :     1.715298  p :     4.395564
      px      :     1.287062
      py      :     1.393204
      dz2     :     0.011514  d :     0.094959
      dxz     :     0.008510
      dyz     :     0.014805
      dx2y2   :     0.032815
      dxy     :     0.027315
      f0      :     0.000615  f :     0.006577
      f+1     :     0.000298
      f-1     :     0.000823
      f+2     :     0.000213
      f-2     :     0.000976
      f+3     :     0.001194
      f-3     :     0.002458
  1 C s       :     2.856392  s :     2.856392
      pz      :     1.058390  p :     2.926612
      px      :     1.019563
      py      :     0.848659
      dz2     :     0.055929  d :     0.421083
      dxz     :     0.111161
      dyz     :     0.076568
      dx2y2   :     0.093878
      dxy     :     0.083546
      f0      :     0.009317  f :     0.062643
      f+1     :     0.005235
      f-1     :     0.005257
      f+2     :     0.006173
      f-2     :     0.006500
      f+3     :     0.013820
      f-3     :     0.016341
  2 C s       :     2.834630  s :     2.834630
      pz      :     1.062690  p :     2.932170
      px      :     1.011588
      py      :     0.857891
      dz2     :     0.052851  d :     0.473814
      dxz     :     0.121384
      dyz     :     0.095758
      dx2y2   :     0.105005
      dxy     :     0.098816
      f0      :     0.009456  f :     0.070856
      f+1     :     0.005636
      f-1     :     0.006145
      f+2     :     0.006337
      f-2     :     0.008736
      f+3     :     0.015595
      f-3     :     0.018952
  3 H s       :     0.824001  s :     0.824001
      pz      :     0.035574  p :     0.068232
      px      :     0.019284
      py      :     0.013374
  4 H s       :     0.814369  s :     0.814369
      pz      :     0.031503  p :     0.055017
      px      :     0.013042
      py      :     0.010473
  5 H s       :     0.824973  s :     0.824973
      pz      :     0.033526  p :     0.062323
      px      :     0.015415
      py      :     0.013383
  6 H s       :     0.824287  s :     0.824287
      pz      :     0.030653  p :     0.062454
      px      :     0.019546
      py      :     0.012255


                      *****************************
                      * MAYER POPULATION ANALYSIS *
                      *****************************

  NA   - Mulliken gross atomic population
  ZA   - Total nuclear charge
  QA   - Mulliken gross atomic charge
  VA   - Mayer's total valence
  BVA  - Mayer's bonded valence
  FA   - Mayer's free valence

  ATOM       NA         ZA         QA         VA         BVA        FA
  0 O      8.3042     8.0000    -0.3042     2.0020     2.0020    -0.0000
  1 C      6.1069     6.0000    -0.1069     3.9478     3.9478    -0.0000
  2 C      6.0671     6.0000    -0.0671     3.9739     3.9739    -0.0000
  3 H      0.8697     1.0000     0.1303     0.9575     0.9575     0.0000
  4 H      0.8768     1.0000     0.1232     0.9655     0.9655    -0.0000
  5 H      0.8955     1.0000     0.1045     0.9612     0.9612    -0.0000
  6 H      0.8799     1.0000     0.1201     0.9545     0.9545    -0.0000

  Mayer bond orders larger than 0.100000
B(  0-O ,  1-C ) :   0.9724 B(  0-O ,  2-C ) :   1.0083 B(  1-C ,  2-C ) :   1.0541 
B(  1-C ,  3-H ) :   0.9484 B(  1-C ,  4-H ) :   0.9587 B(  2-C ,  5-H ) :   0.9585 
B(  2-C ,  6-H ) :   0.9424 

-------
TIMINGS
-------

Total SCF time: 0 days 0 hours 0 min 2 sec 

Total time                  ....       2.564 sec
Sum of individual times     ....       2.375 sec  ( 92.6%)

Fock matrix formation       ....       2.109 sec  ( 82.2%)
  Split-RI-J                ....       0.236 sec  ( 11.2% of F)
  Chain of spheres X        ....       1.449 sec  ( 68.7% of F)
  XC integration            ....       0.402 sec  ( 19.1% of F)
    Basis function eval.    ....       0.109 sec  ( 27.0% of XC)
    Density eval.           ....       0.080 sec  ( 19.9% of XC)
    XC-Functional eval.     ....       0.023 sec  (  5.8% of XC)
    XC-Potential eval.      ....       0.147 sec  ( 36.5% of XC)
Diagonalization             ....       0.016 sec  (  0.6%)
Density matrix formation    ....       0.001 sec  (  0.1%)
Population analysis         ....       0.003 sec  (  0.1%)
Initial guess               ....       0.017 sec  (  0.7%)
Orbital Transformation      ....       0.000 sec  (  0.0%)
Orbital Orthonormalization  ....       0.000 sec  (  0.0%)
DIIS solution               ....       0.013 sec  (  0.5%)
SOSCF solution              ....       0.011 sec  (  0.4%)
Grid generation             ....       0.205 sec  (  8.0%)

Maximum memory used throughout the entire SCF-calculation: 61.1 MB


-------------------------------------------------------------------------------
                          DFT DISPERSION CORRECTION                            
                                                                               
                              DFTD3 V3.1  Rev 1                                
                          USING Becke-Johnson damping                          
-------------------------------------------------------------------------------
The PBE0 functional is recognized
Active option DFTDOPT                   ...         4   

molecular C6(AA) [au] = 350.984363 


            DFT-D V3
 parameters
 s6 scaling factor         :     1.0000 
 a1 scaling factor         :     0.4145 
 s8 scaling factor         :     1.2177 
 a2 scaling factor         :     4.8593 
 ad hoc parameters k1-k3   :    16.0000     1.3333    -4.0000 

 Edisp/kcal,au: -1.505966046521  -0.002399909401 
 E6   /kcal   :  -0.986982960 
 E8   /kcal   :  -0.518983087 
 % E8         :  34.461805282 

-------------------------   ----------------
Dispersion correction           -0.002399909
-------------------------   ----------------


-------------------------   --------------------
FINAL SINGLE POINT ENERGY      -153.664090782167
-------------------------   --------------------



           ************************************************************
           *        Program running with 8 parallel MPI-processes     *
           *              working on a common directory               *
           ************************************************************
------------------------------------------------------------------------------
                         ORCA SCF GRADIENT CALCULATION
------------------------------------------------------------------------------

 ... reading COSX grid (gridx3)
Gradient of the Kohn-Sham DFT energy:
Kohn-Sham wavefunction type      ... RKS
Hartree-Fock exchange scaling    ...    0.250
Number of operators              ...    1
Number of atoms                  ...    7
Basis set dimensions             ...  117
Integral neglect threshold       ... 2.5e-11
Integral primitive cutoff        ... 2.5e-12
SHARK Integral package           ... ON

Nuc. rep. gradient       (SHARK) ... done (  0.0 sec)
HCore & Overlap gradient (SHARK) ... done (  0.0 sec)
RI-J gradient            (SHARK) ... done (  0.1 sec)
COSX-gradient                    ... done (  0.3 sec)
Exchange-correlation gradient    ... done
Dispersion correction            ... done

------------------
CARTESIAN GRADIENT
------------------

   1   O   :    0.005793810    0.010704130   -0.030986077
   2   C   :   -0.051408087   -0.013386740    0.061860742
   3   C   :    0.040522139    0.015544958    0.024260806
   4   H   :    0.010772515   -0.004387371   -0.014131967
   5   H   :   -0.006763489    0.002973583   -0.035038763
   6   H   :   -0.004443846    0.003175633   -0.001866837
   7   H   :    0.005483050   -0.014512065   -0.004318272

Difference to translation invariance:
           :   -0.0000439073    0.0001121278   -0.0002203685

Difference to rotation invariance:
           :   -0.0003542921    0.0000063869    0.0000408179

Norm of the cartesian gradient     ...    0.1101782496
RMS gradient                       ...    0.0240428652
MAX gradient                       ...    0.0618607418

-------
TIMINGS
-------

Total SCF gradient time            ...        0.705 sec

One electron gradient       ....       0.010 sec  (  1.5%)
RI-J Coulomb gradient       ....       0.081 sec  ( 11.5%)
COSX gradient               ....       0.315 sec  ( 44.7%)
XC gradient                 ....       0.158 sec  ( 22.4%)

Maximum memory used throughout the entire SCFGRAD-calculation: 35.9 MB

                            ***************************************
                            *     ORCA property calculations      *
                            ***************************************

                                    ---------------------
                                    Active property flags
                                    ---------------------
   (+) Dipole Moment


------------------------------------------------------------------------------
                       ORCA ELECTRIC PROPERTIES CALCULATION
------------------------------------------------------------------------------

Dipole Moment Calculation                       ... on
Quadrupole Moment Calculation                   ... off
Polarizability Calculation                      ... off
GBWName                                         ... ox_gs_A_orca0023.gbw
Electron density                                ... ox_gs_A_orca0023.scfp
The origin for moment calculation is the CENTER OF MASS  = ( 0.016605, -0.114019  0.038885)

-------------
DIPOLE MOMENT
-------------
                                X             Y             Z
Electronic contribution:     -0.04669       1.76572       0.05243
Nuclear contribution   :      0.04445      -2.48925       0.05380
                        -----------------------------------------
Total Dipole Moment    :     -0.00224      -0.72354       0.10622
                        -----------------------------------------
Magnitude (a.u.)       :      0.73130
Magnitude (Debye)      :      1.85881



--------------------
Rotational spectrum 
--------------------
 
Rotational constants in cm-1:     0.859597     0.696912     0.458216 
Rotational constants in MHz : 25770.067476 20892.901107 13736.972137 

 Dipole components along the rotational axes: 
x,y,z [a.u.] :    -0.073801    -0.727560     0.002384 
x,y,z [Debye]:    -0.187586    -1.849310     0.006059 

 

Timings for individual modules:

Sum of individual times         ...        4.023 sec (=   0.067 min)
GTO integral calculation        ...        0.330 sec (=   0.005 min)   8.2 %
SCF iterations                  ...        2.759 sec (=   0.046 min)  68.6 %
SCF Gradient evaluation         ...        0.934 sec (=   0.016 min)  23.2 %
                             ****ORCA TERMINATED NORMALLY****
TOTAL RUN TIME: 0 days 0 hours 0 minutes 4 seconds 295 msec
