
                                 *****************
                                 * O   R   C   A *
                                 *****************

                                            #,                                       
                                            ###                                      
                                            ####                                     
                                            #####                                    
                                            ######                                   
                                           ########,                                 
                                     ,,################,,,,,                         
                               ,,#################################,,                 
                          ,,##########################################,,             
                       ,#########################################, ''#####,          
                    ,#############################################,,   '####,        
                  ,##################################################,,,,####,       
                ,###########''''           ''''###############################       
              ,#####''   ,,,,##########,,,,          '''####'''          '####       
            ,##' ,,,,###########################,,,                        '##       
           ' ,,###''''                  '''############,,,                           
         ,,##''                                '''############,,,,        ,,,,,,###''
      ,#''                                            '''#######################'''  
     '                                                          ''''####''''         
             ,#######,   #######,   ,#######,      ##                                
            ,#'     '#,  ##    ##  ,#'     '#,    #''#        ######   ,####,        
            ##       ##  ##   ,#'  ##            #'  '#       #        #'  '#        
            ##       ##  #######   ##           ,######,      #####,   #    #        
            '#,     ,#'  ##    ##  '#,     ,#' ,#      #,         ##   #,  ,#        
             '#######'   ##     ##  '#######'  #'      '#     #####' # '####'        



                  #######################################################
                  #                        -***-                        #
                  #          Department of theory and spectroscopy      #
                  #    Directorship and core code : Frank Neese         #
                  #        Max Planck Institute fuer Kohlenforschung    #
                  #                Kaiser Wilhelm Platz 1               #
                  #                 D-45470 Muelheim/Ruhr               #
                  #                      Germany                        #
                  #                                                     #
                  #                  All rights reserved                #
                  #                        -***-                        #
                  #######################################################


                         Program Version 5.0.2 -  RELEASE  -


 With contributions from (in alphabetic order):
   Daniel Aravena         : Magnetic Suceptibility
   Michael Atanasov       : Ab Initio Ligand Field Theory (pilot matlab implementation)
   Alexander A. Auer      : GIAO ZORA, VPT2 properties, NMR spectrum
   Ute Becker             : Parallelization
   Giovanni Bistoni       : ED, misc. LED, open-shell LED, HFLD
   Martin Brehm           : Molecular dynamics
   Dmytro Bykov           : SCF Hessian
   Vijay G. Chilkuri      : MRCI spin determinant printing, contributions to CSF-ICE
   Dipayan Datta          : RHF DLPNO-CCSD density
   Achintya Kumar Dutta   : EOM-CC, STEOM-CC
   Dmitry Ganyushin       : Spin-Orbit,Spin-Spin,Magnetic field MRCI
   Miquel Garcia          : C-PCM and meta-GGA Hessian, CC/C-PCM, Gaussian charge scheme
   Yang Guo               : DLPNO-NEVPT2, F12-NEVPT2, CIM, IAO-localization
   Andreas Hansen         : Spin unrestricted coupled pair/coupled cluster methods
   Benjamin Helmich-Paris : MC-RPA, TRAH-SCF, COSX integrals
   Lee Huntington         : MR-EOM, pCC
   Robert Izsak           : Overlap fitted RIJCOSX, COSX-SCS-MP3, EOM
   Marcus Kettner         : VPT2
   Christian Kollmar      : KDIIS, OOCD, Brueckner-CCSD(T), CCSD density, CASPT2, CASPT2-K
   Simone Kossmann        : Meta GGA functionals, TD-DFT gradient, OOMP2, MP2 Hessian
   Martin Krupicka        : Initial AUTO-CI
   Lucas Lang             : DCDCAS
   Marvin Lechner         : AUTO-CI (C++ implementation), FIC-MRCC
   Dagmar Lenk            : GEPOL surface, SMD
   Dimitrios Liakos       : Extrapolation schemes; Compound Job, initial MDCI parallelization
   Dimitrios Manganas     : Further ROCIS development; embedding schemes
   Dimitrios Pantazis     : SARC Basis sets
   Anastasios Papadopoulos: AUTO-CI, single reference methods and gradients
   Taras Petrenko         : DFT Hessian,TD-DFT gradient, ASA, ECA, R-Raman, ABS, FL, XAS/XES, NRVS
   Peter Pinski           : DLPNO-MP2, DLPNO-MP2 Gradient
   Christoph Reimann      : Effective Core Potentials
   Marius Retegan         : Local ZFS, SOC
   Christoph Riplinger    : Optimizer, TS searches, QM/MM, DLPNO-CCSD(T), (RO)-DLPNO pert. Triples
   Tobias Risthaus        : Range-separated hybrids, TD-DFT gradient, RPA, STAB
   Michael Roemelt        : Original ROCIS implementation
   Masaaki Saitow         : Open-shell DLPNO-CCSD energy and density
   Barbara Sandhoefer     : DKH picture change effects
   Avijit Sen             : IP-ROCIS
   Kantharuban Sivalingam : CASSCF convergence, NEVPT2, FIC-MRCI
   Bernardo de Souza      : ESD, SOC TD-DFT
   Georgi Stoychev        : AutoAux, RI-MP2 NMR, DLPNO-MP2 response
   Willem Van den Heuvel  : Paramagnetic NMR
   Boris Wezisla          : Elementary symmetry handling
   Frank Wennmohs         : Technical directorship


 We gratefully acknowledge several colleagues who have allowed us to
 interface, adapt or use parts of their codes:
   Stefan Grimme, W. Hujo, H. Kruse, P. Pracht,  : VdW corrections, initial TS optimization,
                  C. Bannwarth, S. Ehlert          DFT functionals, gCP, sTDA/sTD-DF
   Ed Valeev, F. Pavosevic, A. Kumar             : LibInt (2-el integral package), F12 methods
   Garnet Chan, S. Sharma, J. Yang, R. Olivares  : DMRG
   Ulf Ekstrom                                   : XCFun DFT Library
   Mihaly Kallay                                 : mrcc  (arbitrary order and MRCC methods)
   Jiri Pittner, Ondrej Demel                    : Mk-CCSD
   Frank Weinhold                                : gennbo (NPA and NBO analysis)
   Christopher J. Cramer and Donald G. Truhlar   : smd solvation model
   Lars Goerigk                                  : TD-DFT with DH, B97 family of functionals
   V. Asgeirsson, H. Jonsson                     : NEB implementation
   FAccTs GmbH                                   : IRC, NEB, NEB-TS, DLPNO-Multilevel, CI-OPT
                                                   MM, QMMM, 2- and 3-layer-ONIOM, Crystal-QMMM,
                                                   LR-CPCM, SF, NACMEs, symmetry and pop. for TD-DFT,
                                                   nearIR, NL-DFT gradient (VV10), updates on ESD,
                                                   ML-optimized integration grids
   S Lehtola, MJT Oliveira, MAL Marques          : LibXC Library
   Liviu Ungur et al                             : ANISO software


 Your calculation uses the libint2 library for the computation of 2-el integrals
 For citations please refer to: http://libint.valeyev.net

 Your ORCA version has been built with support for libXC version: 5.1.0
 For citations please refer to: https://tddft.org/programs/libxc/

 This ORCA versions uses:
   CBLAS   interface :  Fast vector & matrix operations
   LAPACKE interface :  Fast linear algebra routines
   SCALAPACK package :  Parallel linear algebra routines
   Shared memory     :  Shared parallel matrices
   BLAS/LAPACK       :  OpenBLAS 0.3.15  USE64BITINT DYNAMIC_ARCH NO_AFFINITY SkylakeX SINGLE_THREADED
        Core in use  :  SkylakeX
   Copyright (c) 2011-2014, The OpenBLAS Project


Your calculation utilizes the atom-pairwise dispersion correction
with the Becke-Johnson damping scheme (D3BJ)
Cite in your paper:
S.Grimme, S.Ehrlich, L.Goerigk, J Comput Chem, (2011), 32, 1456–1465 
S.Grimme, J.Antony, S.Ehrlich and H.Krieg, J.Chem.Phys., 132, (2010), 154104 
   

================================================================================

----- Orbital basis set information -----
Your calculation utilizes the basis: def2-TZVP
   F. Weigend and R. Ahlrichs, Phys. Chem. Chem. Phys. 7, 3297 (2005).

----- AuxJ basis set information -----
Your calculation utilizes the auxiliary basis: def2/J
   F. Weigend, Phys. Chem. Chem. Phys. 8, 1057 (2006).

================================================================================
                                        WARNINGS
                       Please study these warnings very carefully!
================================================================================


INFO   : the flag for use of the SHARK integral package has been found!

================================================================================
                                       INPUT FILE
================================================================================
NAME = ox_gs_D_orca0001.inp
|  1> ! engrad PBE0 D3BJ def2-TZVP  
|  2> %pal nprocs 8 end
|  3> %maxcore 3000
|  4>  
|  5> *xyz 0 1 
|  6> O   -0.7519699061377929 1.0145342539268005 -0.05952191798086701
|  7> C   -0.6983966992573536 -0.4252903486791058 -0.06285557427519274
|  8> C   0.656197674260207 -0.5336130666443946 0.05923421280442753
|  9> H   -1.1799557416449944 -0.6855453237914186 0.9471804603143155
| 10> H   -1.3014789560560496 -0.7056279512664348 -0.9921676659739996
| 11> H   1.1646447818886259 -0.621513880943951 -0.8373365133154037
| 12> H   1.2064975970062708 -0.6810666521853088 0.9113226618014523
| 13> *
| 14> 
| 15>                          ****END OF INPUT****
================================================================================

                     *******************************
                     * Energy+Gradient Calculation *
                     *******************************

---------------------------------
CARTESIAN COORDINATES (ANGSTROEM)
---------------------------------
  O     -0.751970    1.014534   -0.059522
  C     -0.698397   -0.425290   -0.062856
  C      0.656198   -0.533613    0.059234
  H     -1.179956   -0.685545    0.947180
  H     -1.301479   -0.705628   -0.992168
  H      1.164645   -0.621514   -0.837337
  H      1.206498   -0.681067    0.911323

----------------------------
CARTESIAN COORDINATES (A.U.)
----------------------------
  NO LB      ZA    FRAG     MASS         X           Y           Z
   0 O     8.0000    0    15.999   -1.421017    1.917192   -0.112480
   1 C     6.0000    0    12.011   -1.319778   -0.803682   -0.118780
   2 C     6.0000    0    12.011    1.240034   -1.008383    0.111936
   3 H     1.0000    0     1.008   -2.229793   -1.295493    1.789912
   4 H     1.0000    0     1.008   -2.459439   -1.333444   -1.874925
   5 H     1.0000    0     1.008    2.200860   -1.174491   -1.582337
   6 H     1.0000    0     1.008    2.279950   -1.287029    1.722150

--------------------------------
INTERNAL COORDINATES (ANGSTROEM)
--------------------------------
 O      0   0   0     0.000000000000     0.00000000     0.00000000
 C      1   0   0     1.440824794355     0.00000000     0.00000000
 C      2   1   0     1.364392041937    96.66395036     0.00000000
 H      2   1   3     1.148827469442   102.04983127   110.72404671
 H      2   1   3     1.142767843294   103.14424042   231.38481386
 H      3   2   1     1.034448684733   114.65640665   266.39338631
 H      3   2   1     1.025001116964   128.23080829    96.62272579

---------------------------
INTERNAL COORDINATES (A.U.)
---------------------------
 O      0   0   0     0.000000000000     0.00000000     0.00000000
 C      1   0   0     2.722764268295     0.00000000     0.00000000
 C      2   1   0     2.578327298563    96.66395036     0.00000000
 H      2   1   3     2.170969292372   102.04983127   110.72404671
 H      2   1   3     2.159518258478   103.14424042   231.38481386
 H      3   2   1     1.954824713740   114.65640665   266.39338631
 H      3   2   1     1.936971398025   128.23080829    96.62272579

---------------------
BASIS SET INFORMATION
---------------------
There are 3 groups of distinct atoms

 Group   1 Type O   : 11s6p2d1f contracted to 5s3p2d1f pattern {62111/411/11/1}
 Group   2 Type C   : 11s6p2d1f contracted to 5s3p2d1f pattern {62111/411/11/1}
 Group   3 Type H   : 5s1p contracted to 3s1p pattern {311/1}

Atom   0O    basis set group =>   1
Atom   1C    basis set group =>   2
Atom   2C    basis set group =>   2
Atom   3H    basis set group =>   3
Atom   4H    basis set group =>   3
Atom   5H    basis set group =>   3
Atom   6H    basis set group =>   3
---------------------------------
AUXILIARY/J BASIS SET INFORMATION
---------------------------------
There are 3 groups of distinct atoms

 Group   1 Type O   : 12s5p4d2f1g contracted to 6s4p3d1f1g pattern {711111/2111/211/2/1}
 Group   2 Type C   : 12s5p4d2f1g contracted to 6s4p3d1f1g pattern {711111/2111/211/2/1}
 Group   3 Type H   : 5s2p1d contracted to 3s1p1d pattern {311/2/1}

Atom   0O    basis set group =>   1
Atom   1C    basis set group =>   2
Atom   2C    basis set group =>   2
Atom   3H    basis set group =>   3
Atom   4H    basis set group =>   3
Atom   5H    basis set group =>   3
Atom   6H    basis set group =>   3


           ************************************************************
           *        Program running with 8 parallel MPI-processes     *
           *              working on a common directory               *
           ************************************************************
------------------------------------------------------------------------------
                           ORCA GTO INTEGRAL CALCULATION
                           -- RI-GTO INTEGRALS CHOSEN --
------------------------------------------------------------------------------
------------------------------------------------------------------------------
                   ___                                                        
                  /   \      - P O W E R E D   B Y -                         
                 /     \                                                     
                 |  |  |   _    _      __       _____    __    __             
                 |  |  |  | |  | |    /  \     |  _  \  |  |  /  |          
                  \  \/   | |  | |   /    \    | | | |  |  | /  /          
                 / \  \   | |__| |  /  /\  \   | |_| |  |  |/  /          
                |  |  |   |  __  | /  /__\  \  |    /   |      \           
                |  |  |   | |  | | |   __   |  |    \   |  |\   \          
                \     /   | |  | | |  |  |  |  | |\  \  |  | \   \       
                 \___/    |_|  |_| |__|  |__|  |_| \__\ |__|  \__/        
                                                                              
                      - O R C A' S   B I G   F R I E N D -                    
                                      &                                       
                       - I N T E G R A L  F E E D E R -                       
                                                                              
 v1 FN, 2020, v2 2021                                                         
------------------------------------------------------------------------------


Reading SHARK input file ox_gs_D_orca0001.SHARKINP.tmp ... ok
----------------------
SHARK INTEGRAL PACKAGE
----------------------

Number of atoms                             ...      7
Number of basis functions                   ...    117
Number of shells                            ...     49
Maximum angular momentum                    ...      3
Integral batch strategy                     ... SHARK/LIBINT Hybrid
RI-J (if used) integral strategy            ... SPLIT-RIJ (Revised 2003 algorithm where possible)
Printlevel                                  ...      1
Contraction scheme used                     ... SEGMENTED contraction
Coulomb Range Separation                    ... NOT USED
Exchange Range Separation                   ... NOT USED
Finite Nucleus Model                        ... NOT USED
Auxiliary Coulomb fitting basis             ... AVAILABLE
   # of basis functions in Aux-J            ...    191
   # of shells in Aux-J                     ...     65
   Maximum angular momentum in Aux-J        ...      4
Auxiliary J/K fitting basis                 ... NOT available
Auxiliary Correlation fitting basis         ... NOT available
Auxiliary 'external' fitting basis          ... NOT available
Integral threshold                          ...     2.500000e-11
Primitive cut-off                           ...     2.500000e-12
Primitive pair pre-selection threshold      ...     2.500000e-12

Calculating pre-screening integrals         ... done (  0.0 sec) Dimension = 49
Organizing shell pair data                  ... done (  0.0 sec)
Shell pair information
Total number of shell pairs                 ...      1225
Shell pairs after pre-screening             ...      1214
Total number of primitive shell pairs       ...      3648
Primitive shell pairs kept                  ...      3095
          la=0 lb=0:    368 shell pairs
          la=1 lb=0:    351 shell pairs
          la=1 lb=1:     91 shell pairs
          la=2 lb=0:    161 shell pairs
          la=2 lb=1:     78 shell pairs
          la=2 lb=2:     21 shell pairs
          la=3 lb=0:     81 shell pairs
          la=3 lb=1:     39 shell pairs
          la=3 lb=2:     18 shell pairs
          la=3 lb=3:      6 shell pairs

Calculating one electron integrals          ... done (  0.0 sec)
Calculating RI/J V-Matrix + Cholesky decomp.... done (  0.0 sec)
Calculating Nuclear repulsion               ... done (  0.0 sec) ENN=     70.105885537268 Eh

SHARK setup successfully completed in   0.1 seconds

Maximum memory used throughout the entire GTOINT-calculation: 14.9 MB


           ************************************************************
           *        Program running with 8 parallel MPI-processes     *
           *              working on a common directory               *
           ************************************************************
-------------------------------------------------------------------------------
                                 ORCA SCF
-------------------------------------------------------------------------------

------------
SCF SETTINGS
------------
Hamiltonian:
 Density Functional     Method          .... DFT(GTOs)
 Exchange Functional    Exchange        .... PBE
   PBE kappa parameter   XKappa         ....  0.804000
   PBE mue parameter    XMuePBE         ....  0.219520
 Correlation Functional Correlation     .... PBE
   PBE beta parameter  CBetaPBE         ....  0.066725
 LDA part of GGA corr.  LDAOpt          .... PW91-LDA
 Gradients option       PostSCFGGA      .... off
 Hybrid DFT is turned on
   Fraction HF Exchange ScalHFX         ....  0.250000
   Scaling of DF-GGA-X  ScalDFX         ....  0.750000
   Scaling of DF-GGA-C  ScalDFC         ....  1.000000
   Scaling of DF-LDA-C  ScalLDAC        ....  1.000000
   Perturbative correction              ....  0.000000
   Density functional embedding theory  .... OFF
   NL short-range parameter             ....  6.900000
 RI-approximation to the Coulomb term is turned on
   Number of AuxJ basis functions       .... 191
   RIJ-COSX (HFX calculated with COS-X)).... on


General Settings:
 Integral files         IntName         .... ox_gs_D_orca0001
 Hartree-Fock type      HFTyp           .... RHF
 Total Charge           Charge          ....    0
 Multiplicity           Mult            ....    1
 Number of Electrons    NEL             ....   24
 Basis Dimension        Dim             ....  117
 Nuclear Repulsion      ENuc            ....     70.1058855373 Eh

Convergence Acceleration:
 DIIS                   CNVDIIS         .... on
   Start iteration      DIISMaxIt       ....    12
   Startup error        DIISStart       ....  0.200000
   # of expansion vecs  DIISMaxEq       ....     5
   Bias factor          DIISBfac        ....   1.050
   Max. coefficient     DIISMaxC        ....  10.000
 Trust-Rad. Augm. Hess. CNVTRAH         .... auto
   Auto Start mean grad. ratio tolernc. ....  1.125000
   Auto Start start iteration           ....    20
   Auto Start num. interpolation iter.  ....    10
   Max. Number of Micro iterations      ....    16
   Max. Number of Macro iterations      .... Maxiter - #DIIS iter
   Number of Davidson start vectors     ....     2
   Converg. threshold I  (grad. norm)   ....   1.000e-05
   Converg. threshold II (energy diff.) ....   1.000e-08
   Grad. Scal. Fac. for Micro threshold ....   0.100
   Minimum threshold for Micro iter.    ....   0.010
   NR start threshold (gradient norm)   ....   0.001
   Initial trust radius                 ....   0.400
   Minimum AH scaling param. (alpha)    ....   1.000
   Maximum AH scaling param. (alpha)    .... 1000.000
   Orbital update algorithm             .... Taylor
   White noise on init. David. guess    .... on
   Maximum white noise                  ....   0.010
   Quad. conv. algorithm                .... NR
 SOSCF                  CNVSOSCF        .... on
   Start iteration      SOSCFMaxIt      ....   150
   Startup grad/error   SOSCFStart      ....  0.003300
 Level Shifting         CNVShift        .... on
   Level shift para.    LevelShift      ....    0.2500
   Turn off err/grad.   ShiftErr        ....    0.0010
 Zerner damping         CNVZerner       .... off
 Static damping         CNVDamp         .... on
   Fraction old density DampFac         ....    0.7000
   Max. Damping (<1)    DampMax         ....    0.9800
   Min. Damping (>=0)   DampMin         ....    0.0000
   Turn off err/grad.   DampErr         ....    0.1000
 Fernandez-Rico         CNVRico         .... off

SCF Procedure:
 Maximum # iterations   MaxIter         ....   125
 SCF integral mode      SCFMode         .... Direct
   Integral package                     .... SHARK and LIBINT hybrid scheme
 Reset frequency        DirectResetFreq ....    20
 Integral Threshold     Thresh          ....  2.500e-11 Eh
 Primitive CutOff       TCut            ....  2.500e-12 Eh

Convergence Tolerance:
 Convergence Check Mode ConvCheckMode   .... Total+1el-Energy
 Convergence forced     ConvForced      .... 0
 Energy Change          TolE            ....  1.000e-08 Eh
 1-El. energy change                    ....  1.000e-05 Eh
 Orbital Gradient       TolG            ....  1.000e-05
 Orbital Rotation angle TolX            ....  1.000e-05
 DIIS Error             TolErr          ....  5.000e-07


Diagonalization of the overlap matrix:
Smallest eigenvalue                        ... 2.427e-04
Time for diagonalization                   ...    0.001 sec
Threshold for overlap eigenvalues          ... 1.000e-08
Number of eigenvalues below threshold      ... 0
Time for construction of square roots      ...    0.001 sec
Total time needed                          ...    0.003 sec

Time for model grid setup =    0.022 sec

------------------------------
INITIAL GUESS: MODEL POTENTIAL
------------------------------
Loading Hartree-Fock densities                     ... done
Calculating cut-offs                               ... done
Initializing the effective Hamiltonian             ... done
Setting up the integral package (SHARK)            ... done
Starting the Coulomb interaction                   ... done (   0.0 sec)
Reading the grid                                   ... done
Mapping shells                                     ... done
Starting the XC term evaluation                    ... done (   0.0 sec)
  promolecular density results
     # of electrons  =     23.999020962
     EX              =    -19.485133948
     EC              =     -0.769751719
     EX+EC           =    -20.254885666
Transforming the Hamiltonian                       ... done (   0.0 sec)
Diagonalizing the Hamiltonian                      ... done (   0.0 sec)
Back transforming the eigenvectors                 ... done (   0.0 sec)
Now organizing SCF variables                       ... done
                      ------------------
                      INITIAL GUESS DONE (   0.0 sec)
                      ------------------
-------------------
DFT GRID GENERATION
-------------------

General Integration Accuracy     IntAcc      ... 4.388
Radial Grid Type                 RadialGrid  ... OptM3 with GC (2021)
Angular Grid (max. ang.)         AngularGrid ... 4 (Lebedev-302)
Angular grid pruning method      GridPruning ... 4 (adaptive)
Weight generation scheme         WeightScheme... Becke
Basis function cutoff            BFCut       ... 1.0000e-11
Integration weight cutoff        WCut        ... 1.0000e-14
Angular grids for H and He will be reduced by one unit
Partially contracted basis set               ... off
Rotationally invariant grid construction     ... off

Total number of grid points                  ...    31313
Total number of batches                      ...      494
Average number of points per batch           ...       63
Average number of grid points per atom       ...     4473
Time for grid setup =    0.112 sec

--------------------
COSX GRID GENERATION
--------------------

GRIDX 1
-------
General Integration Accuracy     IntAcc      ... 3.816
Radial Grid Type                 RadialGrid  ... OptM3 with GC (2021)
Angular Grid (max. ang.)         AngularGrid ... 1 (Lebedev-50)
Angular grid pruning method      GridPruning ... 4 (adaptive)
Weight generation scheme         WeightScheme... Becke
Basis function cutoff            BFCut       ... 1.0000e-11
Integration weight cutoff        WCut        ... 1.0000e-14
Angular grids for H and He will be reduced by one unit
Partially contracted basis set               ... on
Rotationally invariant grid construction     ... off

Total number of grid points                  ...     4031
Total number of batches                      ...       68
Average number of points per batch           ...       59
Average number of grid points per atom       ...      576
UseSFitting                                  ... on

GRIDX 2
-------
General Integration Accuracy     IntAcc      ... 4.020
Radial Grid Type                 RadialGrid  ... OptM3 with GC (2021)
Angular Grid (max. ang.)         AngularGrid ... 2 (Lebedev-110)
Angular grid pruning method      GridPruning ... 4 (adaptive)
Weight generation scheme         WeightScheme... Becke
Basis function cutoff            BFCut       ... 1.0000e-11
Integration weight cutoff        WCut        ... 1.0000e-14
Angular grids for H and He will be reduced by one unit
Partially contracted basis set               ... on
Rotationally invariant grid construction     ... off

Total number of grid points                  ...     8713
Total number of batches                      ...      141
Average number of points per batch           ...       61
Average number of grid points per atom       ...     1245
UseSFitting                                  ... on

GRIDX 3
-------
General Integration Accuracy     IntAcc      ... 4.338
Radial Grid Type                 RadialGrid  ... OptM3 with GC (2021)
Angular Grid (max. ang.)         AngularGrid ... 3 (Lebedev-194)
Angular grid pruning method      GridPruning ... 4 (adaptive)
Weight generation scheme         WeightScheme... Becke
Basis function cutoff            BFCut       ... 1.0000e-11
Integration weight cutoff        WCut        ... 1.0000e-14
Angular grids for H and He will be reduced by one unit
Partially contracted basis set               ... on
Rotationally invariant grid construction     ... off

Total number of grid points                  ...    19226
Total number of batches                      ...      303
Average number of points per batch           ...       63
Average number of grid points per atom       ...     2747
UseSFitting                                  ... on

Time for X-Grid setup             =    0.074 sec

--------------
SCF ITERATIONS
--------------
ITER       Energy         Delta-E        Max-DP      RMS-DP      [F,P]     Damp
               ***  Starting incremental Fock matrix formation  ***
  0   -153.4383051238   0.000000000000 0.06920794  0.00207048  0.2765809 0.7000
  1   -153.5026459739  -0.064340850073 0.04047305  0.00126708  0.0827777 0.7000
                               ***Turning on DIIS***
  2   -153.5168923517  -0.014246377857 0.03953171  0.00159847  0.0499665 0.0000
  3   -153.5561153502  -0.039222998482 0.02534839  0.00109242  0.0361684 0.0000
  4   -153.5585942004  -0.002478850163 0.01025639  0.00032108  0.0452539 0.0000
  5   -153.5609003389  -0.002306138501 0.00271049  0.00008772  0.0084585 0.0000
  6   -153.5609942423  -0.000093903426 0.00133356  0.00003414  0.0038078 0.0000
                      *** Initiating the SOSCF procedure ***
                           *** Shutting down DIIS ***
                      *** Re-Reading the Fockian *** 
                      *** Removing any level shift *** 
ITER      Energy       Delta-E        Grad      Rot      Max-DP    RMS-DP
  7   -153.56101002  -0.0000157813  0.000381  0.000381  0.000988  0.000033
               *** Restarting incremental Fock matrix formation ***
  8   -153.56100269   0.0000073317  0.000332  0.002071  0.001195  0.000034
  9   -153.56099244   0.0000102511  0.001403  0.001953  0.001114  0.000027
 10   -153.56100391  -0.0000114734  0.000054  0.000165  0.000100  0.000004
 11   -153.56100393  -0.0000000132  0.000052  0.000062  0.000047  0.000002
 12   -153.56100398  -0.0000000479  0.000007  0.000066  0.000019  0.000001
 13   -153.56100398  -0.0000000018  0.000003  0.000055  0.000016  0.000001
                  ***Gradient check signals convergence***
              ***Rediagonalizing the Fockian in SOSCF/NRSCF***

               *****************************************************
               *                     SUCCESS                       *
               *           SCF CONVERGED AFTER  14 CYCLES          *
               *****************************************************

Old exchange energy                            =     -4.971170130 Eh
New exchange energy                            =     -4.971171721 Eh
Exchange energy change after final integration =     -0.000001591 Eh
Total energy after final integration           =   -153.561005569 Eh
Final COS-X integration done in                =     0.280 sec

----------------
TOTAL SCF ENERGY
----------------

Total Energy       :         -153.56100557 Eh           -4178.60740 eV

Components:
Nuclear Repulsion  :           70.10588554 Eh            1907.67813 eV
Electronic Energy  :         -223.66689111 Eh           -6086.28553 eV
One Electron Energy:         -346.95517852 Eh           -9441.13039 eV
Two Electron Energy:          123.28828741 Eh            3354.84486 eV
Max COSX asymmetry :            0.00000127 Eh               0.00003 eV

Virial components:
Potential Energy   :         -306.54061374 Eh           -8341.39417 eV
Kinetic Energy     :          152.97960818 Eh            4162.78677 eV
Virial Ratio       :            2.00380049


DFT components:
N(Alpha)           :       12.000009753601 electrons
N(Beta)            :       12.000009753601 electrons
N(Total)           :       24.000019507202 electrons
E(X)               :      -14.917733113148 Eh       
E(C)               :       -0.774824021705 Eh       
E(XC)              :      -15.692557134853 Eh       
DFET-embed. en.    :        0.000000000000 Eh       

---------------
SCF CONVERGENCE
---------------

  Last Energy change         ...   -7.8904e-10  Tolerance :   1.0000e-08
  Last MAX-Density change    ...    6.6613e-16  Tolerance :   1.0000e-07
  Last RMS-Density change    ...    1.9015e-17  Tolerance :   5.0000e-09
  Last Orbital Gradient      ...    1.7551e-06  Tolerance :   1.0000e-05
  Last Orbital Rotation      ...    5.5927e-06  Tolerance :   1.0000e-05

             **** THE GBW FILE WAS UPDATED (ox_gs_D_orca0001.gbw) ****
             **** DENSITY ox_gs_D_orca0001.scfp WAS UPDATED ****
             **** ENERGY FILE WAS UPDATED (ox_gs_D_orca0001.en.tmp) ****
             **** THE GBW FILE WAS UPDATED (ox_gs_D_orca0001.gbw) ****
             **** DENSITY ox_gs_D_orca0001.scfp WAS UPDATED ****
----------------
ORBITAL ENERGIES
----------------

  NO   OCC          E(Eh)            E(eV) 
   0   2.0000     -19.202505      -522.5267 
   1   2.0000     -10.300259      -280.2843 
   2   2.0000     -10.275333      -279.6060 
   3   2.0000      -0.996455       -27.1149 
   4   2.0000      -0.795334       -21.6421 
   5   2.0000      -0.628227       -17.0949 
   6   2.0000      -0.538749       -14.6601 
   7   2.0000      -0.491944       -13.3865 
   8   2.0000      -0.410976       -11.1832 
   9   2.0000      -0.403277       -10.9737 
  10   2.0000      -0.283479        -7.7139 
  11   2.0000      -0.259333        -7.0568 
  12   0.0000      -0.123111        -3.3500 
  13   0.0000       0.056893         1.5481 
  14   0.0000       0.078100         2.1252 
  15   0.0000       0.089296         2.4299 
  16   0.0000       0.130325         3.5463 
  17   0.0000       0.144913         3.9433 
  18   0.0000       0.184556         5.0220 
  19   0.0000       0.213418         5.8074 
  20   0.0000       0.226706         6.1690 
  21   0.0000       0.251630         6.8472 
  22   0.0000       0.271612         7.3910 
  23   0.0000       0.340845         9.2749 
  24   0.0000       0.375977        10.2308 
  25   0.0000       0.399531        10.8718 
  26   0.0000       0.425382        11.5752 
  27   0.0000       0.431695        11.7470 
  28   0.0000       0.459020        12.4906 
  29   0.0000       0.503063        13.6890 
  30   0.0000       0.516890        14.0653 
  31   0.0000       0.539846        14.6900 
  32   0.0000       0.570916        15.5354 
  33   0.0000       0.611885        16.6502 
  34   0.0000       0.629164        17.1204 
  35   0.0000       0.755122        20.5479 
  36   0.0000       0.806693        21.9512 
  37   0.0000       0.851633        23.1741 
  38   0.0000       0.862945        23.4819 
  39   0.0000       0.925511        25.1844 
  40   0.0000       0.943870        25.6840 
  41   0.0000       1.060403        28.8550 
  42   0.0000       1.065551        28.9951 
  43   0.0000       1.088907        29.6307 
  44   0.0000       1.214018        33.0351 
  45   0.0000       1.322826        35.9959 
  46   0.0000       1.391506        37.8648 
  47   0.0000       1.478542        40.2332 
  48   0.0000       1.499675        40.8082 
  49   0.0000       1.549154        42.1546 
  50   0.0000       1.583039        43.0767 
  51   0.0000       1.595778        43.4233 
  52   0.0000       1.657104        45.0921 
  53   0.0000       1.694596        46.1123 
  54   0.0000       1.734382        47.1949 
  55   0.0000       1.784531        48.5595 
  56   0.0000       1.806587        49.1597 
  57   0.0000       1.831911        49.8488 
  58   0.0000       1.890605        51.4460 
  59   0.0000       1.930550        52.5329 
  60   0.0000       2.001056        54.4515 
  61   0.0000       2.128210        57.9115 
  62   0.0000       2.182113        59.3783 
  63   0.0000       2.224802        60.5399 
  64   0.0000       2.300248        62.5929 
  65   0.0000       2.347835        63.8878 
  66   0.0000       2.375489        64.6403 
  67   0.0000       2.465487        67.0893 
  68   0.0000       2.482184        67.5437 
  69   0.0000       2.572868        70.0113 
  70   0.0000       2.587979        70.4225 
  71   0.0000       2.604381        70.8688 
  72   0.0000       2.681810        72.9758 
  73   0.0000       2.720168        74.0195 
  74   0.0000       2.817805        76.6764 
  75   0.0000       2.827979        76.9532 
  76   0.0000       2.858023        77.7707 
  77   0.0000       2.913652        79.2845 
  78   0.0000       2.952355        80.3377 
  79   0.0000       2.995543        81.5129 
  80   0.0000       3.039398        82.7062 
  81   0.0000       3.099351        84.3376 
  82   0.0000       3.129934        85.1698 
  83   0.0000       3.149441        85.7006 
  84   0.0000       3.179839        86.5278 
  85   0.0000       3.215723        87.5043 
  86   0.0000       3.374981        91.8379 
  87   0.0000       3.450146        93.8832 
  88   0.0000       3.469328        94.4052 
  89   0.0000       3.478192        94.6464 
  90   0.0000       3.586634        97.5973 
  91   0.0000       3.700061       100.6838 
  92   0.0000       3.774298       102.7039 
  93   0.0000       3.943702       107.3136 
  94   0.0000       4.032125       109.7197 
  95   0.0000       4.193900       114.1218 
  96   0.0000       4.220841       114.8549 
  97   0.0000       4.271028       116.2206 
  98   0.0000       4.468739       121.6006 
  99   0.0000       4.613482       125.5392 
 100   0.0000       4.629704       125.9807 
 101   0.0000       4.801224       130.6480 
 102   0.0000       5.211980       141.8252 
 103   0.0000       5.265133       143.2715 
 104   0.0000       5.365345       145.9985 
 105   0.0000       5.375971       146.2876 
 106   0.0000       5.731274       155.9559 
 107   0.0000       5.775797       157.1674 
 108   0.0000       5.925509       161.2413 
 109   0.0000       6.385914       173.7696 
 110   0.0000       6.426848       174.8834 
 111   0.0000       6.780210       184.4989 
 112   0.0000       6.800497       185.0509 
 113   0.0000       6.965231       189.5336 
 114   0.0000      22.179156       603.5255 
 115   0.0000      22.619500       615.5079 
 116   0.0000      43.748831      1190.4662 

                    ********************************
                    * MULLIKEN POPULATION ANALYSIS *
                    ********************************

-----------------------
MULLIKEN ATOMIC CHARGES
-----------------------
   0 O :   -0.380543
   1 C :   -0.007754
   2 C :   -0.110949
   3 H :    0.075063
   4 H :    0.108583
   5 H :    0.147534
   6 H :    0.168067
Sum of atomic charges:    0.0000000

--------------------------------
MULLIKEN REDUCED ORBITAL CHARGES
--------------------------------
  0 O s       :     3.916090  s :     3.916090
      pz      :     1.899446  p :     4.440577
      px      :     1.318012
      py      :     1.223119
      dz2     :     0.003226  d :     0.022659
      dxz     :     0.000235
      dyz     :     0.004806
      dx2y2   :     0.008307
      dxy     :     0.006084
      f0      :     0.000133  f :     0.001218
      f+1     :     0.000054
      f-1     :     0.000300
      f+2     :     0.000142
      f-2     :     0.000023
      f+3     :     0.000251
      f-3     :     0.000316
  1 C s       :     3.170270  s :     3.170270
      pz      :     1.021117  p :     2.668235
      px      :     0.917924
      py      :     0.729194
      dz2     :     0.010736  d :     0.159579
      dxz     :     0.020964
      dyz     :     0.047347
      dx2y2   :     0.022300
      dxy     :     0.058232
      f0      :     0.001768  f :     0.009669
      f+1     :     0.001086
      f-1     :     0.000773
      f+2     :     0.003054
      f-2     :     0.000103
      f+3     :     0.001641
      f-3     :     0.001243
  2 C s       :     3.268467  s :     3.268467
      pz      :     1.072163  p :     2.776942
      px      :     1.015640
      py      :     0.689139
      dz2     :     0.005232  d :     0.060221
      dxz     :     0.029564
      dyz     :     0.004742
      dx2y2   :     0.007497
      dxy     :     0.013187
      f0      :     0.000606  f :     0.005319
      f+1     :     0.001137
      f-1     :     0.000087
      f+2     :     0.000971
      f-2     :     0.000244
      f+3     :     0.000860
      f-3     :     0.001414
  3 H s       :     0.905878  s :     0.905878
      pz      :     0.010488  p :     0.019060
      px      :     0.004955
      py      :     0.003617
  4 H s       :     0.872165  s :     0.872165
      pz      :     0.009505  p :     0.019252
      px      :     0.006138
      py      :     0.003609
  5 H s       :     0.828840  s :     0.828840
      pz      :     0.012263  p :     0.023626
      px      :     0.007231
      py      :     0.004132
  6 H s       :     0.808197  s :     0.808197
      pz      :     0.011573  p :     0.023737
      px      :     0.007836
      py      :     0.004328


                     *******************************
                     * LOEWDIN POPULATION ANALYSIS *
                     *******************************

----------------------
LOEWDIN ATOMIC CHARGES
----------------------
   0 O :   -0.067740
   1 C :   -0.450112
   2 C :    0.010523
   3 H :    0.132834
   4 H :    0.131953
   5 H :    0.124625
   6 H :    0.117916

-------------------------------
LOEWDIN REDUCED ORBITAL CHARGES
-------------------------------
  0 O s       :     3.578691  s :     3.578691
      pz      :     1.833930  p :     4.436091
      px      :     1.265056
      py      :     1.337105
      dz2     :     0.006712  d :     0.049674
      dxz     :     0.000211
      dyz     :     0.012209
      dx2y2   :     0.017454
      dxy     :     0.013088
      f0      :     0.000316  f :     0.003283
      f+1     :     0.000081
      f-1     :     0.000569
      f+2     :     0.000600
      f-2     :     0.000014
      f+3     :     0.000953
      f-3     :     0.000750
  1 C s       :     2.817797  s :     2.817797
      pz      :     1.021039  p :     2.929538
      px      :     1.077128
      py      :     0.831371
      dz2     :     0.069507  d :     0.630625
      dxz     :     0.120117
      dyz     :     0.127129
      dx2y2   :     0.132311
      dxy     :     0.181561
      f0      :     0.011932  f :     0.072152
      f+1     :     0.006285
      f-1     :     0.007132
      f+2     :     0.017169
      f-2     :     0.001963
      f+3     :     0.012830
      f-3     :     0.014842
  2 C s       :     2.860144  s :     2.860144
      pz      :     1.065664  p :     2.824018
      px      :     1.137426
      py      :     0.620929
      dz2     :     0.032286  d :     0.273355
      dxz     :     0.140687
      dyz     :     0.008775
      dx2y2   :     0.044130
      dxy     :     0.047477
      f0      :     0.004887  f :     0.031959
      f+1     :     0.005316
      f-1     :     0.001006
      f+2     :     0.006403
      f-2     :     0.000857
      f+3     :     0.005572
      f-3     :     0.007918
  3 H s       :     0.817217  s :     0.817217
      pz      :     0.028131  p :     0.049948
      px      :     0.012521
      py      :     0.009296
  4 H s       :     0.816010  s :     0.816010
      pz      :     0.026929  p :     0.052038
      px      :     0.015448
      py      :     0.009661
  5 H s       :     0.804218  s :     0.804218
      pz      :     0.037721  p :     0.071157
      px      :     0.021609
      py      :     0.011826
  6 H s       :     0.808624  s :     0.808624
      pz      :     0.037174  p :     0.073460
      px      :     0.023577
      py      :     0.012709


                      *****************************
                      * MAYER POPULATION ANALYSIS *
                      *****************************

  NA   - Mulliken gross atomic population
  ZA   - Total nuclear charge
  QA   - Mulliken gross atomic charge
  VA   - Mayer's total valence
  BVA  - Mayer's bonded valence
  FA   - Mayer's free valence

  ATOM       NA         ZA         QA         VA         BVA        FA
  0 O      8.3805     8.0000    -0.3805     1.8265     1.8265    -0.0000
  1 C      6.0078     6.0000    -0.0078     4.0729     4.0729     0.0000
  2 C      6.1109     6.0000    -0.1109     3.8442     3.8442     0.0000
  3 H      0.9249     1.0000     0.0751     0.9579     0.9579    -0.0000
  4 H      0.8914     1.0000     0.1086     0.9534     0.9534    -0.0000
  5 H      0.8525     1.0000     0.1475     0.9613     0.9613    -0.0000
  6 H      0.8319     1.0000     0.1681     0.9517     0.9517    -0.0000

  Mayer bond orders larger than 0.100000
B(  0-O ,  1-C ) :   1.0326 B(  0-O ,  2-C ) :   0.7856 B(  1-C ,  2-C ) :   1.1434 
B(  1-C ,  3-H ) :   0.9456 B(  1-C ,  4-H ) :   0.9466 B(  2-C ,  5-H ) :   0.9510 
B(  2-C ,  6-H ) :   0.9439 

-------
TIMINGS
-------

Total SCF time: 0 days 0 hours 0 min 3 sec 

Total time                  ....       3.166 sec
Sum of individual times     ....       2.842 sec  ( 89.8%)

Fock matrix formation       ....       2.562 sec  ( 80.9%)
  Split-RI-J                ....       0.275 sec  ( 10.7% of F)
  Chain of spheres X        ....       1.766 sec  ( 68.9% of F)
  XC integration            ....       0.493 sec  ( 19.2% of F)
    Basis function eval.    ....       0.137 sec  ( 27.8% of XC)
    Density eval.           ....       0.102 sec  ( 20.6% of XC)
    XC-Functional eval.     ....       0.029 sec  (  5.9% of XC)
    XC-Potential eval.      ....       0.173 sec  ( 35.2% of XC)
Diagonalization             ....       0.019 sec  (  0.6%)
Density matrix formation    ....       0.002 sec  (  0.1%)
Population analysis         ....       0.003 sec  (  0.1%)
Initial guess               ....       0.017 sec  (  0.5%)
Orbital Transformation      ....       0.000 sec  (  0.0%)
Orbital Orthonormalization  ....       0.000 sec  (  0.0%)
DIIS solution               ....       0.016 sec  (  0.5%)
SOSCF solution              ....       0.015 sec  (  0.5%)
Grid generation             ....       0.208 sec  (  6.6%)

Maximum memory used throughout the entire SCF-calculation: 61.0 MB


-------------------------------------------------------------------------------
                          DFT DISPERSION CORRECTION                            
                                                                               
                              DFTD3 V3.1  Rev 1                                
                          USING Becke-Johnson damping                          
-------------------------------------------------------------------------------
The PBE0 functional is recognized
Active option DFTDOPT                   ...         4   

molecular C6(AA) [au] = 393.505756 


            DFT-D V3
 parameters
 s6 scaling factor         :     1.0000 
 a1 scaling factor         :     0.4145 
 s8 scaling factor         :     1.2177 
 a2 scaling factor         :     4.8593 
 ad hoc parameters k1-k3   :    16.0000     1.3333    -4.0000 

 Edisp/kcal,au: -1.664939389289  -0.002653249521 
 E6   /kcal   :  -1.087582195 
 E8   /kcal   :  -0.577357194 
 % E8         :  34.677370124 

-------------------------   ----------------
Dispersion correction           -0.002653250
-------------------------   ----------------


-------------------------   --------------------
FINAL SINGLE POINT ENERGY      -153.563658818213
-------------------------   --------------------



           ************************************************************
           *        Program running with 8 parallel MPI-processes     *
           *              working on a common directory               *
           ************************************************************
------------------------------------------------------------------------------
                         ORCA SCF GRADIENT CALCULATION
------------------------------------------------------------------------------

 ... reading COSX grid (gridx3)
Gradient of the Kohn-Sham DFT energy:
Kohn-Sham wavefunction type      ... RKS
Hartree-Fock exchange scaling    ...    0.250
Number of operators              ...    1
Number of atoms                  ...    7
Basis set dimensions             ...  117
Integral neglect threshold       ... 2.5e-11
Integral primitive cutoff        ... 2.5e-12
SHARK Integral package           ... ON

Nuc. rep. gradient       (SHARK) ... done (  0.0 sec)
HCore & Overlap gradient (SHARK) ... done (  0.0 sec)
RI-J gradient            (SHARK) ... done (  0.1 sec)
COSX-gradient                    ... done (  0.3 sec)
Exchange-correlation gradient    ... done
Dispersion correction            ... done

------------------
CARTESIAN GRADIENT
------------------

   1   O   :   -0.069732429    0.031386510   -0.003001508
   2   C   :    0.137437095   -0.010083723   -0.030064207
   3   C   :   -0.000099852   -0.034356565    0.038219521
   4   H   :    0.000616658    0.010681745    0.032002404
   5   H   :   -0.023440992    0.014161269   -0.025211842
   6   H   :   -0.028051810   -0.007615416    0.033199263
   7   H   :   -0.016733214   -0.004206367   -0.045141489

Difference to translation invariance:
           :   -0.0000045448   -0.0000325467    0.0000021417

Difference to rotation invariance:
           :   -0.0000622746    0.0000001437    0.0002109956

Norm of the cartesian gradient     ...    0.1876144241
RMS gradient                       ...    0.0409408238
MAX gradient                       ...    0.1374370949

-------
TIMINGS
-------

Total SCF gradient time            ...        0.734 sec

One electron gradient       ....       0.010 sec  (  1.3%)
RI-J Coulomb gradient       ....       0.080 sec  ( 10.9%)
COSX gradient               ....       0.338 sec  ( 46.0%)
XC gradient                 ....       0.167 sec  ( 22.8%)

Maximum memory used throughout the entire SCFGRAD-calculation: 35.9 MB

                            ***************************************
                            *     ORCA property calculations      *
                            ***************************************

                                    ---------------------
                                    Active property flags
                                    ---------------------
   (+) Dipole Moment


------------------------------------------------------------------------------
                       ORCA ELECTRIC PROPERTIES CALCULATION
------------------------------------------------------------------------------

Dipole Moment Calculation                       ... on
Quadrupole Moment Calculation                   ... off
Polarizability Calculation                      ... off
GBWName                                         ... ox_gs_D_orca0001.gbw
Electron density                                ... ox_gs_D_orca0001.scfp
The origin for moment calculation is the CENTER OF MASS  = (-0.542591,  0.085744 -0.041462)

-------------
DIPOLE MOMENT
-------------
                                X             Y             Z
Electronic contribution:     -0.29808       1.46001      -0.07694
Nuclear contribution   :      0.96715      -2.68316       0.10899
                        -----------------------------------------
Total Dipole Moment    :      0.66907      -1.22314       0.03205
                        -----------------------------------------
Magnitude (a.u.)       :      1.39455
Magnitude (Debye)      :      3.54466



--------------------
Rotational spectrum 
--------------------
 
Rotational constants in cm-1:     1.167744     0.435273     0.363695 
Rotational constants in MHz : 35008.099055 13049.151642 10903.287997 

 Dipole components along the rotational axes: 
x,y,z [a.u.] :     1.347806    -0.357201     0.024357 
x,y,z [Debye]:     3.425850    -0.907934     0.061909 

 

Timings for individual modules:

Sum of individual times         ...        4.528 sec (=   0.075 min)
GTO integral calculation        ...        0.269 sec (=   0.004 min)   5.9 %
SCF iterations                  ...        3.331 sec (=   0.056 min)  73.6 %
SCF Gradient evaluation         ...        0.928 sec (=   0.015 min)  20.5 %
                             ****ORCA TERMINATED NORMALLY****
TOTAL RUN TIME: 0 days 0 hours 0 minutes 4 seconds 841 msec
