
                                 *****************
                                 * O   R   C   A *
                                 *****************

                                            #,                                       
                                            ###                                      
                                            ####                                     
                                            #####                                    
                                            ######                                   
                                           ########,                                 
                                     ,,################,,,,,                         
                               ,,#################################,,                 
                          ,,##########################################,,             
                       ,#########################################, ''#####,          
                    ,#############################################,,   '####,        
                  ,##################################################,,,,####,       
                ,###########''''           ''''###############################       
              ,#####''   ,,,,##########,,,,          '''####'''          '####       
            ,##' ,,,,###########################,,,                        '##       
           ' ,,###''''                  '''############,,,                           
         ,,##''                                '''############,,,,        ,,,,,,###''
      ,#''                                            '''#######################'''  
     '                                                          ''''####''''         
             ,#######,   #######,   ,#######,      ##                                
            ,#'     '#,  ##    ##  ,#'     '#,    #''#        ######   ,####,        
            ##       ##  ##   ,#'  ##            #'  '#       #        #'  '#        
            ##       ##  #######   ##           ,######,      #####,   #    #        
            '#,     ,#'  ##    ##  '#,     ,#' ,#      #,         ##   #,  ,#        
             '#######'   ##     ##  '#######'  #'      '#     #####' # '####'        



                  #######################################################
                  #                        -***-                        #
                  #          Department of theory and spectroscopy      #
                  #    Directorship and core code : Frank Neese         #
                  #        Max Planck Institute fuer Kohlenforschung    #
                  #                Kaiser Wilhelm Platz 1               #
                  #                 D-45470 Muelheim/Ruhr               #
                  #                      Germany                        #
                  #                                                     #
                  #                  All rights reserved                #
                  #                        -***-                        #
                  #######################################################


                         Program Version 5.0.2 -  RELEASE  -


 With contributions from (in alphabetic order):
   Daniel Aravena         : Magnetic Suceptibility
   Michael Atanasov       : Ab Initio Ligand Field Theory (pilot matlab implementation)
   Alexander A. Auer      : GIAO ZORA, VPT2 properties, NMR spectrum
   Ute Becker             : Parallelization
   Giovanni Bistoni       : ED, misc. LED, open-shell LED, HFLD
   Martin Brehm           : Molecular dynamics
   Dmytro Bykov           : SCF Hessian
   Vijay G. Chilkuri      : MRCI spin determinant printing, contributions to CSF-ICE
   Dipayan Datta          : RHF DLPNO-CCSD density
   Achintya Kumar Dutta   : EOM-CC, STEOM-CC
   Dmitry Ganyushin       : Spin-Orbit,Spin-Spin,Magnetic field MRCI
   Miquel Garcia          : C-PCM and meta-GGA Hessian, CC/C-PCM, Gaussian charge scheme
   Yang Guo               : DLPNO-NEVPT2, F12-NEVPT2, CIM, IAO-localization
   Andreas Hansen         : Spin unrestricted coupled pair/coupled cluster methods
   Benjamin Helmich-Paris : MC-RPA, TRAH-SCF, COSX integrals
   Lee Huntington         : MR-EOM, pCC
   Robert Izsak           : Overlap fitted RIJCOSX, COSX-SCS-MP3, EOM
   Marcus Kettner         : VPT2
   Christian Kollmar      : KDIIS, OOCD, Brueckner-CCSD(T), CCSD density, CASPT2, CASPT2-K
   Simone Kossmann        : Meta GGA functionals, TD-DFT gradient, OOMP2, MP2 Hessian
   Martin Krupicka        : Initial AUTO-CI
   Lucas Lang             : DCDCAS
   Marvin Lechner         : AUTO-CI (C++ implementation), FIC-MRCC
   Dagmar Lenk            : GEPOL surface, SMD
   Dimitrios Liakos       : Extrapolation schemes; Compound Job, initial MDCI parallelization
   Dimitrios Manganas     : Further ROCIS development; embedding schemes
   Dimitrios Pantazis     : SARC Basis sets
   Anastasios Papadopoulos: AUTO-CI, single reference methods and gradients
   Taras Petrenko         : DFT Hessian,TD-DFT gradient, ASA, ECA, R-Raman, ABS, FL, XAS/XES, NRVS
   Peter Pinski           : DLPNO-MP2, DLPNO-MP2 Gradient
   Christoph Reimann      : Effective Core Potentials
   Marius Retegan         : Local ZFS, SOC
   Christoph Riplinger    : Optimizer, TS searches, QM/MM, DLPNO-CCSD(T), (RO)-DLPNO pert. Triples
   Tobias Risthaus        : Range-separated hybrids, TD-DFT gradient, RPA, STAB
   Michael Roemelt        : Original ROCIS implementation
   Masaaki Saitow         : Open-shell DLPNO-CCSD energy and density
   Barbara Sandhoefer     : DKH picture change effects
   Avijit Sen             : IP-ROCIS
   Kantharuban Sivalingam : CASSCF convergence, NEVPT2, FIC-MRCI
   Bernardo de Souza      : ESD, SOC TD-DFT
   Georgi Stoychev        : AutoAux, RI-MP2 NMR, DLPNO-MP2 response
   Willem Van den Heuvel  : Paramagnetic NMR
   Boris Wezisla          : Elementary symmetry handling
   Frank Wennmohs         : Technical directorship


 We gratefully acknowledge several colleagues who have allowed us to
 interface, adapt or use parts of their codes:
   Stefan Grimme, W. Hujo, H. Kruse, P. Pracht,  : VdW corrections, initial TS optimization,
                  C. Bannwarth, S. Ehlert          DFT functionals, gCP, sTDA/sTD-DF
   Ed Valeev, F. Pavosevic, A. Kumar             : LibInt (2-el integral package), F12 methods
   Garnet Chan, S. Sharma, J. Yang, R. Olivares  : DMRG
   Ulf Ekstrom                                   : XCFun DFT Library
   Mihaly Kallay                                 : mrcc  (arbitrary order and MRCC methods)
   Jiri Pittner, Ondrej Demel                    : Mk-CCSD
   Frank Weinhold                                : gennbo (NPA and NBO analysis)
   Christopher J. Cramer and Donald G. Truhlar   : smd solvation model
   Lars Goerigk                                  : TD-DFT with DH, B97 family of functionals
   V. Asgeirsson, H. Jonsson                     : NEB implementation
   FAccTs GmbH                                   : IRC, NEB, NEB-TS, DLPNO-Multilevel, CI-OPT
                                                   MM, QMMM, 2- and 3-layer-ONIOM, Crystal-QMMM,
                                                   LR-CPCM, SF, NACMEs, symmetry and pop. for TD-DFT,
                                                   nearIR, NL-DFT gradient (VV10), updates on ESD,
                                                   ML-optimized integration grids
   S Lehtola, MJT Oliveira, MAL Marques          : LibXC Library
   Liviu Ungur et al                             : ANISO software


 Your calculation uses the libint2 library for the computation of 2-el integrals
 For citations please refer to: http://libint.valeyev.net

 Your ORCA version has been built with support for libXC version: 5.1.0
 For citations please refer to: https://tddft.org/programs/libxc/

 This ORCA versions uses:
   CBLAS   interface :  Fast vector & matrix operations
   LAPACKE interface :  Fast linear algebra routines
   SCALAPACK package :  Parallel linear algebra routines
   Shared memory     :  Shared parallel matrices
   BLAS/LAPACK       :  OpenBLAS 0.3.15  USE64BITINT DYNAMIC_ARCH NO_AFFINITY SkylakeX SINGLE_THREADED
        Core in use  :  SkylakeX
   Copyright (c) 2011-2014, The OpenBLAS Project


Your calculation utilizes the atom-pairwise dispersion correction
with the Becke-Johnson damping scheme (D3BJ)
Cite in your paper:
S.Grimme, S.Ehrlich, L.Goerigk, J Comput Chem, (2011), 32, 1456–1465 
S.Grimme, J.Antony, S.Ehrlich and H.Krieg, J.Chem.Phys., 132, (2010), 154104 
   

================================================================================

----- Orbital basis set information -----
Your calculation utilizes the basis: def2-TZVP
   F. Weigend and R. Ahlrichs, Phys. Chem. Chem. Phys. 7, 3297 (2005).

----- AuxJ basis set information -----
Your calculation utilizes the auxiliary basis: def2/J
   F. Weigend, Phys. Chem. Chem. Phys. 8, 1057 (2006).

================================================================================
                                        WARNINGS
                       Please study these warnings very carefully!
================================================================================


INFO   : the flag for use of the SHARK integral package has been found!

================================================================================
                                       INPUT FILE
================================================================================
NAME = ox_gs_A_orca0036.inp
|  1> ! engrad PBE0 D3BJ def2-TZVP  
|  2> %pal nprocs 8 end
|  3> %maxcore 3000
|  4>  
|  5> *xyz 0 1 
|  6> O   0.024665945044044464 0.7761661161847437 -0.042917779009060686
|  7> C   -0.6938740960295504 -0.4758023813118887 0.006100490732268073
|  8> C   0.8568937669134397 -0.4518234849862325 0.05746366631428379
|  9> H   -1.2989817512562942 -0.670020234524848 1.0085162517817756
| 10> H   -1.2951711228893883 -0.5776484821001536 -0.8845886232272262
| 11> H   1.2356994812052866 -0.636650473047224 -0.8713484975186635
| 12> H   1.2949133681108598 -0.7467820459945228 0.8836193112087566
| 13> *
| 14> 
| 15>                          ****END OF INPUT****
================================================================================

                     *******************************
                     * Energy+Gradient Calculation *
                     *******************************

---------------------------------
CARTESIAN COORDINATES (ANGSTROEM)
---------------------------------
  O      0.024666    0.776166   -0.042918
  C     -0.693874   -0.475802    0.006100
  C      0.856894   -0.451823    0.057464
  H     -1.298982   -0.670020    1.008516
  H     -1.295171   -0.577648   -0.884589
  H      1.235699   -0.636650   -0.871348
  H      1.294913   -0.746782    0.883619

----------------------------
CARTESIAN COORDINATES (A.U.)
----------------------------
  NO LB      ZA    FRAG     MASS         X           Y           Z
   0 O     8.0000    0    15.999    0.046612    1.466741   -0.081103
   1 C     6.0000    0    12.011   -1.311232   -0.899136    0.011528
   2 C     6.0000    0    12.011    1.619295   -0.853823    0.108591
   3 H     1.0000    0     1.008   -2.454720   -1.266155    1.905820
   4 H     1.0000    0     1.008   -2.447519   -1.091597   -1.671630
   5 H     1.0000    0     1.008    2.335134   -1.203095   -1.646610
   6 H     1.0000    0     1.008    2.447032   -1.411214    1.669799

--------------------------------
INTERNAL COORDINATES (ANGSTROEM)
--------------------------------
 O      0   0   0     0.000000000000     0.00000000     0.00000000
 C      1   0   0     1.444343345648     0.00000000     0.00000000
 C      1   2   0     1.486821456209    63.91262784     0.00000000
 H      2   1   3     1.186892247393   115.09589765   110.11461895
 H      2   1   3     1.079471092935   109.32298151   239.11279132
 H      3   1   2     1.019973931226   107.22119411   102.71271164
 H      3   1   2     0.980507457053   123.73755041   256.28186409

---------------------------
INTERNAL COORDINATES (A.U.)
---------------------------
 O      0   0   0     0.000000000000     0.00000000     0.00000000
 C      1   0   0     2.729413366627     0.00000000     0.00000000
 C      1   2   0     2.809685362273    63.91262784     0.00000000
 H      2   1   3     2.242901298047   115.09589765   110.11461895
 H      2   1   3     2.039904735132   109.32298151   239.11279132
 H      3   1   2     1.927471393755   107.22119411   102.71271164
 H      3   1   2     1.852890566097   123.73755041   256.28186409

---------------------
BASIS SET INFORMATION
---------------------
There are 3 groups of distinct atoms

 Group   1 Type O   : 11s6p2d1f contracted to 5s3p2d1f pattern {62111/411/11/1}
 Group   2 Type C   : 11s6p2d1f contracted to 5s3p2d1f pattern {62111/411/11/1}
 Group   3 Type H   : 5s1p contracted to 3s1p pattern {311/1}

Atom   0O    basis set group =>   1
Atom   1C    basis set group =>   2
Atom   2C    basis set group =>   2
Atom   3H    basis set group =>   3
Atom   4H    basis set group =>   3
Atom   5H    basis set group =>   3
Atom   6H    basis set group =>   3
---------------------------------
AUXILIARY/J BASIS SET INFORMATION
---------------------------------
There are 3 groups of distinct atoms

 Group   1 Type O   : 12s5p4d2f1g contracted to 6s4p3d1f1g pattern {711111/2111/211/2/1}
 Group   2 Type C   : 12s5p4d2f1g contracted to 6s4p3d1f1g pattern {711111/2111/211/2/1}
 Group   3 Type H   : 5s2p1d contracted to 3s1p1d pattern {311/2/1}

Atom   0O    basis set group =>   1
Atom   1C    basis set group =>   2
Atom   2C    basis set group =>   2
Atom   3H    basis set group =>   3
Atom   4H    basis set group =>   3
Atom   5H    basis set group =>   3
Atom   6H    basis set group =>   3


           ************************************************************
           *        Program running with 8 parallel MPI-processes     *
           *              working on a common directory               *
           ************************************************************
------------------------------------------------------------------------------
                           ORCA GTO INTEGRAL CALCULATION
                           -- RI-GTO INTEGRALS CHOSEN --
------------------------------------------------------------------------------
------------------------------------------------------------------------------
                   ___                                                        
                  /   \      - P O W E R E D   B Y -                         
                 /     \                                                     
                 |  |  |   _    _      __       _____    __    __             
                 |  |  |  | |  | |    /  \     |  _  \  |  |  /  |          
                  \  \/   | |  | |   /    \    | | | |  |  | /  /          
                 / \  \   | |__| |  /  /\  \   | |_| |  |  |/  /          
                |  |  |   |  __  | /  /__\  \  |    /   |      \           
                |  |  |   | |  | | |   __   |  |    \   |  |\   \          
                \     /   | |  | | |  |  |  |  | |\  \  |  | \   \       
                 \___/    |_|  |_| |__|  |__|  |_| \__\ |__|  \__/        
                                                                              
                      - O R C A' S   B I G   F R I E N D -                    
                                      &                                       
                       - I N T E G R A L  F E E D E R -                       
                                                                              
 v1 FN, 2020, v2 2021                                                         
------------------------------------------------------------------------------


Reading SHARK input file ox_gs_A_orca0036.SHARKINP.tmp ... ok
----------------------
SHARK INTEGRAL PACKAGE
----------------------

Number of atoms                             ...      7
Number of basis functions                   ...    117
Number of shells                            ...     49
Maximum angular momentum                    ...      3
Integral batch strategy                     ... SHARK/LIBINT Hybrid
RI-J (if used) integral strategy            ... SPLIT-RIJ (Revised 2003 algorithm where possible)
Printlevel                                  ...      1
Contraction scheme used                     ... SEGMENTED contraction
Coulomb Range Separation                    ... NOT USED
Exchange Range Separation                   ... NOT USED
Finite Nucleus Model                        ... NOT USED
Auxiliary Coulomb fitting basis             ... AVAILABLE
   # of basis functions in Aux-J            ...    191
   # of shells in Aux-J                     ...     65
   Maximum angular momentum in Aux-J        ...      4
Auxiliary J/K fitting basis                 ... NOT available
Auxiliary Correlation fitting basis         ... NOT available
Auxiliary 'external' fitting basis          ... NOT available
Integral threshold                          ...     2.500000e-11
Primitive cut-off                           ...     2.500000e-12
Primitive pair pre-selection threshold      ...     2.500000e-12

Calculating pre-screening integrals         ... done (  0.0 sec) Dimension = 49
Organizing shell pair data                  ... done (  0.0 sec)
Shell pair information
Total number of shell pairs                 ...      1225
Shell pairs after pre-screening             ...      1220
Total number of primitive shell pairs       ...      3648
Primitive shell pairs kept                  ...      3147
          la=0 lb=0:    373 shell pairs
          la=1 lb=0:    351 shell pairs
          la=1 lb=1:     91 shell pairs
          la=2 lb=0:    162 shell pairs
          la=2 lb=1:     78 shell pairs
          la=2 lb=2:     21 shell pairs
          la=3 lb=0:     81 shell pairs
          la=3 lb=1:     39 shell pairs
          la=3 lb=2:     18 shell pairs
          la=3 lb=3:      6 shell pairs

Calculating one electron integrals          ... done (  0.0 sec)
Calculating RI/J V-Matrix + Cholesky decomp.... done (  0.0 sec)
Calculating Nuclear repulsion               ... done (  0.0 sec) ENN=     73.837783871040 Eh

SHARK setup successfully completed in   0.1 seconds

Maximum memory used throughout the entire GTOINT-calculation: 14.9 MB


           ************************************************************
           *        Program running with 8 parallel MPI-processes     *
           *              working on a common directory               *
           ************************************************************
-------------------------------------------------------------------------------
                                 ORCA SCF
-------------------------------------------------------------------------------

------------
SCF SETTINGS
------------
Hamiltonian:
 Density Functional     Method          .... DFT(GTOs)
 Exchange Functional    Exchange        .... PBE
   PBE kappa parameter   XKappa         ....  0.804000
   PBE mue parameter    XMuePBE         ....  0.219520
 Correlation Functional Correlation     .... PBE
   PBE beta parameter  CBetaPBE         ....  0.066725
 LDA part of GGA corr.  LDAOpt          .... PW91-LDA
 Gradients option       PostSCFGGA      .... off
 Hybrid DFT is turned on
   Fraction HF Exchange ScalHFX         ....  0.250000
   Scaling of DF-GGA-X  ScalDFX         ....  0.750000
   Scaling of DF-GGA-C  ScalDFC         ....  1.000000
   Scaling of DF-LDA-C  ScalLDAC        ....  1.000000
   Perturbative correction              ....  0.000000
   Density functional embedding theory  .... OFF
   NL short-range parameter             ....  6.900000
 RI-approximation to the Coulomb term is turned on
   Number of AuxJ basis functions       .... 191
   RIJ-COSX (HFX calculated with COS-X)).... on


General Settings:
 Integral files         IntName         .... ox_gs_A_orca0036
 Hartree-Fock type      HFTyp           .... RHF
 Total Charge           Charge          ....    0
 Multiplicity           Mult            ....    1
 Number of Electrons    NEL             ....   24
 Basis Dimension        Dim             ....  117
 Nuclear Repulsion      ENuc            ....     73.8377838710 Eh

Convergence Acceleration:
 DIIS                   CNVDIIS         .... on
   Start iteration      DIISMaxIt       ....    12
   Startup error        DIISStart       ....  0.200000
   # of expansion vecs  DIISMaxEq       ....     5
   Bias factor          DIISBfac        ....   1.050
   Max. coefficient     DIISMaxC        ....  10.000
 Trust-Rad. Augm. Hess. CNVTRAH         .... auto
   Auto Start mean grad. ratio tolernc. ....  1.125000
   Auto Start start iteration           ....    20
   Auto Start num. interpolation iter.  ....    10
   Max. Number of Micro iterations      ....    16
   Max. Number of Macro iterations      .... Maxiter - #DIIS iter
   Number of Davidson start vectors     ....     2
   Converg. threshold I  (grad. norm)   ....   1.000e-05
   Converg. threshold II (energy diff.) ....   1.000e-08
   Grad. Scal. Fac. for Micro threshold ....   0.100
   Minimum threshold for Micro iter.    ....   0.010
   NR start threshold (gradient norm)   ....   0.001
   Initial trust radius                 ....   0.400
   Minimum AH scaling param. (alpha)    ....   1.000
   Maximum AH scaling param. (alpha)    .... 1000.000
   Orbital update algorithm             .... Taylor
   White noise on init. David. guess    .... on
   Maximum white noise                  ....   0.010
   Quad. conv. algorithm                .... NR
 SOSCF                  CNVSOSCF        .... on
   Start iteration      SOSCFMaxIt      ....   150
   Startup grad/error   SOSCFStart      ....  0.003300
 Level Shifting         CNVShift        .... on
   Level shift para.    LevelShift      ....    0.2500
   Turn off err/grad.   ShiftErr        ....    0.0010
 Zerner damping         CNVZerner       .... off
 Static damping         CNVDamp         .... on
   Fraction old density DampFac         ....    0.7000
   Max. Damping (<1)    DampMax         ....    0.9800
   Min. Damping (>=0)   DampMin         ....    0.0000
   Turn off err/grad.   DampErr         ....    0.1000
 Fernandez-Rico         CNVRico         .... off

SCF Procedure:
 Maximum # iterations   MaxIter         ....   125
 SCF integral mode      SCFMode         .... Direct
   Integral package                     .... SHARK and LIBINT hybrid scheme
 Reset frequency        DirectResetFreq ....    20
 Integral Threshold     Thresh          ....  2.500e-11 Eh
 Primitive CutOff       TCut            ....  2.500e-12 Eh

Convergence Tolerance:
 Convergence Check Mode ConvCheckMode   .... Total+1el-Energy
 Convergence forced     ConvForced      .... 0
 Energy Change          TolE            ....  1.000e-08 Eh
 1-El. energy change                    ....  1.000e-05 Eh
 Orbital Gradient       TolG            ....  1.000e-05
 Orbital Rotation angle TolX            ....  1.000e-05
 DIIS Error             TolErr          ....  5.000e-07


Diagonalization of the overlap matrix:
Smallest eigenvalue                        ... 6.719e-04
Time for diagonalization                   ...    0.001 sec
Threshold for overlap eigenvalues          ... 1.000e-08
Number of eigenvalues below threshold      ... 0
Time for construction of square roots      ...    0.001 sec
Total time needed                          ...    0.003 sec

Time for model grid setup =    0.023 sec

------------------------------
INITIAL GUESS: MODEL POTENTIAL
------------------------------
Loading Hartree-Fock densities                     ... done
Calculating cut-offs                               ... done
Initializing the effective Hamiltonian             ... done
Setting up the integral package (SHARK)            ... done
Starting the Coulomb interaction                   ... done (   0.0 sec)
Reading the grid                                   ... done
Mapping shells                                     ... done
Starting the XC term evaluation                    ... done (   0.0 sec)
  promolecular density results
     # of electrons  =     23.997122155
     EX              =    -19.519159777
     EC              =     -0.778336994
     EX+EC           =    -20.297496771
Transforming the Hamiltonian                       ... done (   0.0 sec)
Diagonalizing the Hamiltonian                      ... done (   0.0 sec)
Back transforming the eigenvectors                 ... done (   0.0 sec)
Now organizing SCF variables                       ... done
                      ------------------
                      INITIAL GUESS DONE (   0.0 sec)
                      ------------------
-------------------
DFT GRID GENERATION
-------------------

General Integration Accuracy     IntAcc      ... 4.388
Radial Grid Type                 RadialGrid  ... OptM3 with GC (2021)
Angular Grid (max. ang.)         AngularGrid ... 4 (Lebedev-302)
Angular grid pruning method      GridPruning ... 4 (adaptive)
Weight generation scheme         WeightScheme... Becke
Basis function cutoff            BFCut       ... 1.0000e-11
Integration weight cutoff        WCut        ... 1.0000e-14
Angular grids for H and He will be reduced by one unit
Partially contracted basis set               ... off
Rotationally invariant grid construction     ... off

Total number of grid points                  ...    31328
Total number of batches                      ...      494
Average number of points per batch           ...       63
Average number of grid points per atom       ...     4475
Time for grid setup =    0.109 sec

--------------------
COSX GRID GENERATION
--------------------

GRIDX 1
-------
General Integration Accuracy     IntAcc      ... 3.816
Radial Grid Type                 RadialGrid  ... OptM3 with GC (2021)
Angular Grid (max. ang.)         AngularGrid ... 1 (Lebedev-50)
Angular grid pruning method      GridPruning ... 4 (adaptive)
Weight generation scheme         WeightScheme... Becke
Basis function cutoff            BFCut       ... 1.0000e-11
Integration weight cutoff        WCut        ... 1.0000e-14
Angular grids for H and He will be reduced by one unit
Partially contracted basis set               ... on
Rotationally invariant grid construction     ... off

Total number of grid points                  ...     4036
Total number of batches                      ...       67
Average number of points per batch           ...       60
Average number of grid points per atom       ...      577
UseSFitting                                  ... on

GRIDX 2
-------
General Integration Accuracy     IntAcc      ... 4.020
Radial Grid Type                 RadialGrid  ... OptM3 with GC (2021)
Angular Grid (max. ang.)         AngularGrid ... 2 (Lebedev-110)
Angular grid pruning method      GridPruning ... 4 (adaptive)
Weight generation scheme         WeightScheme... Becke
Basis function cutoff            BFCut       ... 1.0000e-11
Integration weight cutoff        WCut        ... 1.0000e-14
Angular grids for H and He will be reduced by one unit
Partially contracted basis set               ... on
Rotationally invariant grid construction     ... off

Total number of grid points                  ...     8720
Total number of batches                      ...      139
Average number of points per batch           ...       62
Average number of grid points per atom       ...     1246
UseSFitting                                  ... on

GRIDX 3
-------
General Integration Accuracy     IntAcc      ... 4.338
Radial Grid Type                 RadialGrid  ... OptM3 with GC (2021)
Angular Grid (max. ang.)         AngularGrid ... 3 (Lebedev-194)
Angular grid pruning method      GridPruning ... 4 (adaptive)
Weight generation scheme         WeightScheme... Becke
Basis function cutoff            BFCut       ... 1.0000e-11
Integration weight cutoff        WCut        ... 1.0000e-14
Angular grids for H and He will be reduced by one unit
Partially contracted basis set               ... on
Rotationally invariant grid construction     ... off

Total number of grid points                  ...    19248
Total number of batches                      ...      304
Average number of points per batch           ...       63
Average number of grid points per atom       ...     2750
UseSFitting                                  ... on

Time for X-Grid setup             =    0.073 sec

--------------
SCF ITERATIONS
--------------
ITER       Energy         Delta-E        Max-DP      RMS-DP      [F,P]     Damp
               ***  Starting incremental Fock matrix formation  ***
  0   -153.5838302438   0.000000000000 0.03180990  0.00111119  0.1719893 0.7000
  1   -153.6103418000  -0.026511556240 0.01707481  0.00082180  0.0719109 0.7000
                               ***Turning on DIIS***
  2   -153.6214341245  -0.011092324533 0.02620121  0.00141214  0.0332068 0.0000
  3   -153.6397624996  -0.018328375104 0.01357097  0.00061776  0.0381735 0.0000
  4   -153.6429480937  -0.003185594036 0.00406956  0.00016440  0.0092605 0.0000
  5   -153.6431402989  -0.000192205220 0.00129377  0.00005647  0.0035751 0.0000
                      *** Initiating the SOSCF procedure ***
                           *** Shutting down DIIS ***
                      *** Re-Reading the Fockian *** 
                      *** Removing any level shift *** 
ITER      Energy       Delta-E        Grad      Rot      Max-DP    RMS-DP
  6   -153.64316238  -0.0000220842  0.000080  0.000080  0.000831  0.000026
               *** Restarting incremental Fock matrix formation ***
  7   -153.64314709   0.0000152965  0.000041  0.000050  0.000084  0.000004
  8   -153.64314706   0.0000000274  0.000068  0.000039  0.000055  0.000002
  9   -153.64314712  -0.0000000601  0.000007  0.000015  0.000019  0.000001
 10   -153.64314712   0.0000000017  0.000010  0.000011  0.000011  0.000000
                  ***Gradient check signals convergence***
              ***Rediagonalizing the Fockian in SOSCF/NRSCF***

               *****************************************************
               *                     SUCCESS                       *
               *           SCF CONVERGED AFTER  11 CYCLES          *
               *****************************************************

Old exchange energy                            =     -4.988834785 Eh
New exchange energy                            =     -4.988838164 Eh
Exchange energy change after final integration =     -0.000003378 Eh
Total energy after final integration           =   -153.643150499 Eh
Final COS-X integration done in                =     0.256 sec

----------------
TOTAL SCF ENERGY
----------------

Total Energy       :         -153.64315050 Eh           -4180.84268 eV

Components:
Nuclear Repulsion  :           73.83778387 Eh            2009.22825 eV
Electronic Energy  :         -227.48093437 Eh           -6190.07092 eV
One Electron Energy:         -354.38232757 Eh           -9643.23339 eV
Two Electron Energy:          126.90139320 Eh            3453.16246 eV
Max COSX asymmetry :            0.00000163 Eh               0.00004 eV

Virial components:
Potential Energy   :         -306.54197101 Eh           -8341.43110 eV
Kinetic Energy     :          152.89882051 Eh            4160.58843 eV
Virial Ratio       :            2.00486812


DFT components:
N(Alpha)           :       12.000000177299 electrons
N(Beta)            :       12.000000177299 electrons
N(Total)           :       24.000000354599 electrons
E(X)               :      -14.943135435978 Eh       
E(C)               :       -0.786917882218 Eh       
E(XC)              :      -15.730053318196 Eh       
DFET-embed. en.    :        0.000000000000 Eh       

---------------
SCF CONVERGENCE
---------------

  Last Energy change         ...   -2.8609e-09  Tolerance :   1.0000e-08
  Last MAX-Density change    ...    1.2212e-15  Tolerance :   1.0000e-07
  Last RMS-Density change    ...    2.3683e-17  Tolerance :   5.0000e-09
  Last Orbital Gradient      ...    8.7551e-07  Tolerance :   1.0000e-05
  Last Orbital Rotation      ...    1.4407e-06  Tolerance :   1.0000e-05

             **** THE GBW FILE WAS UPDATED (ox_gs_A_orca0036.gbw) ****
             **** DENSITY ox_gs_A_orca0036.scfp WAS UPDATED ****
             **** ENERGY FILE WAS UPDATED (ox_gs_A_orca0036.en.tmp) ****
             **** THE GBW FILE WAS UPDATED (ox_gs_A_orca0036.gbw) ****
             **** DENSITY ox_gs_A_orca0036.scfp WAS UPDATED ****
----------------
ORBITAL ENERGIES
----------------

  NO   OCC          E(Eh)            E(eV) 
   0   2.0000     -19.223123      -523.0878 
   1   2.0000     -10.287714      -279.9429 
   2   2.0000     -10.271337      -279.4973 
   3   2.0000      -1.078713       -29.3533 
   4   2.0000      -0.707719       -19.2580 
   5   2.0000      -0.655433       -17.8353 
   6   2.0000      -0.532127       -14.4799 
   7   2.0000      -0.491855       -13.3841 
   8   2.0000      -0.418253       -11.3812 
   9   2.0000      -0.399601       -10.8737 
  10   2.0000      -0.321154        -8.7390 
  11   2.0000      -0.287107        -7.8126 
  12   0.0000       0.054653         1.4872 
  13   0.0000       0.069510         1.8915 
  14   0.0000       0.071282         1.9397 
  15   0.0000       0.099364         2.7038 
  16   0.0000       0.109332         2.9751 
  17   0.0000       0.150552         4.0967 
  18   0.0000       0.189562         5.1582 
  19   0.0000       0.205623         5.5953 
  20   0.0000       0.263811         7.1787 
  21   0.0000       0.272243         7.4081 
  22   0.0000       0.288168         7.8414 
  23   0.0000       0.316644         8.6163 
  24   0.0000       0.367060         9.9882 
  25   0.0000       0.379307        10.3215 
  26   0.0000       0.403798        10.9879 
  27   0.0000       0.414833        11.2882 
  28   0.0000       0.455049        12.3825 
  29   0.0000       0.470618        12.8062 
  30   0.0000       0.507147        13.8002 
  31   0.0000       0.534444        14.5430 
  32   0.0000       0.550360        14.9761 
  33   0.0000       0.696996        18.9662 
  34   0.0000       0.710587        19.3360 
  35   0.0000       0.726074        19.7575 
  36   0.0000       0.823695        22.4139 
  37   0.0000       0.831918        22.6376 
  38   0.0000       0.906965        24.6798 
  39   0.0000       0.927328        25.2339 
  40   0.0000       0.993951        27.0468 
  41   0.0000       1.021925        27.8080 
  42   0.0000       1.055391        28.7187 
  43   0.0000       1.073238        29.2043 
  44   0.0000       1.141068        31.0500 
  45   0.0000       1.349808        36.7302 
  46   0.0000       1.459624        39.7184 
  47   0.0000       1.470546        40.0156 
  48   0.0000       1.505687        40.9718 
  49   0.0000       1.522716        41.4352 
  50   0.0000       1.585802        43.1519 
  51   0.0000       1.633758        44.4568 
  52   0.0000       1.656648        45.0797 
  53   0.0000       1.709422        46.5157 
  54   0.0000       1.770455        48.1765 
  55   0.0000       1.818102        49.4731 
  56   0.0000       1.863047        50.6961 
  57   0.0000       1.892309        51.4923 
  58   0.0000       1.922738        52.3204 
  59   0.0000       1.954826        53.1935 
  60   0.0000       2.147110        58.4258 
  61   0.0000       2.155873        58.6643 
  62   0.0000       2.173247        59.1371 
  63   0.0000       2.213602        60.2352 
  64   0.0000       2.249220        61.2044 
  65   0.0000       2.392094        65.0922 
  66   0.0000       2.444162        66.5090 
  67   0.0000       2.460898        66.9644 
  68   0.0000       2.560466        69.6738 
  69   0.0000       2.601680        70.7953 
  70   0.0000       2.650413        72.1214 
  71   0.0000       2.658331        72.3369 
  72   0.0000       2.702853        73.5484 
  73   0.0000       2.717099        73.9360 
  74   0.0000       2.753920        74.9380 
  75   0.0000       2.793470        76.0142 
  76   0.0000       2.865748        77.9810 
  77   0.0000       2.937675        79.9382 
  78   0.0000       2.993186        81.4487 
  79   0.0000       3.006241        81.8040 
  80   0.0000       3.045145        82.8626 
  81   0.0000       3.107339        84.5550 
  82   0.0000       3.138351        85.3989 
  83   0.0000       3.221395        87.6586 
  84   0.0000       3.287683        89.4624 
  85   0.0000       3.303151        89.8833 
  86   0.0000       3.328698        90.5785 
  87   0.0000       3.419822        93.0581 
  88   0.0000       3.515634        95.6653 
  89   0.0000       3.580708        97.4360 
  90   0.0000       3.629907        98.7748 
  91   0.0000       3.703099       100.7664 
  92   0.0000       3.831251       104.2536 
  93   0.0000       3.942087       107.2696 
  94   0.0000       4.012904       109.1967 
  95   0.0000       4.071858       110.8009 
  96   0.0000       4.241716       115.4230 
  97   0.0000       4.313913       117.3875 
  98   0.0000       4.384017       119.2952 
  99   0.0000       4.611741       125.4919 
 100   0.0000       4.733345       128.8009 
 101   0.0000       4.799985       130.6142 
 102   0.0000       5.288646       143.9114 
 103   0.0000       5.432307       147.8206 
 104   0.0000       5.669061       154.2630 
 105   0.0000       5.715165       155.5175 
 106   0.0000       5.744774       156.3233 
 107   0.0000       5.836276       158.8132 
 108   0.0000       5.994714       163.1245 
 109   0.0000       6.602738       179.6696 
 110   0.0000       6.636526       180.5891 
 111   0.0000       6.772714       184.2949 
 112   0.0000       6.954358       189.2377 
 113   0.0000       7.191689       195.6958 
 114   0.0000      22.176825       603.4621 
 115   0.0000      22.451547       610.9376 
 116   0.0000      43.831652      1192.7199 

                    ********************************
                    * MULLIKEN POPULATION ANALYSIS *
                    ********************************

-----------------------
MULLIKEN ATOMIC CHARGES
-----------------------
   0 O :   -0.311827
   1 C :   -0.097433
   2 C :   -0.082877
   3 H :    0.115281
   4 H :    0.131254
   5 H :    0.117711
   6 H :    0.127891
Sum of atomic charges:    0.0000000

--------------------------------
MULLIKEN REDUCED ORBITAL CHARGES
--------------------------------
  0 O s       :     3.860408  s :     3.860408
      pz      :     1.851612  p :     4.409908
      px      :     1.299510
      py      :     1.258786
      dz2     :     0.005401  d :     0.039586
      dxz     :     0.002497
      dyz     :     0.005922
      dx2y2   :     0.011137
      dxy     :     0.014630
      f0      :     0.000226  f :     0.001925
      f+1     :     0.000188
      f-1     :     0.000422
      f+2     :     0.000068
      f-2     :     0.000192
      f+3     :     0.000332
      f-3     :     0.000497
  1 C s       :     3.255345  s :     3.255345
      pz      :     1.050100  p :     2.723107
      px      :     0.888356
      py      :     0.784651
      dz2     :     0.006566  d :     0.108030
      dxz     :     0.026163
      dyz     :     0.028944
      dx2y2   :     0.028589
      dxy     :     0.017768
      f0      :     0.001413  f :     0.010951
      f+1     :     0.001423
      f-1     :     0.000529
      f+2     :     0.001373
      f-2     :     0.001474
      f+3     :     0.002073
      f-3     :     0.002665
  2 C s       :     3.223241  s :     3.223241
      pz      :     1.045329  p :     2.750237
      px      :     0.904078
      py      :     0.800830
      dz2     :     0.008840  d :     0.099058
      dxz     :     0.020970
      dyz     :     0.025410
      dx2y2   :     0.024493
      dxy     :     0.019345
      f0      :     0.001509  f :     0.010341
      f+1     :     0.001342
      f-1     :     0.000628
      f+2     :     0.000784
      f-2     :     0.001584
      f+3     :     0.002131
      f-3     :     0.002364
  3 H s       :     0.866940  s :     0.866940
      pz      :     0.009494  p :     0.017779
      px      :     0.005454
      py      :     0.002831
  4 H s       :     0.846941  s :     0.846941
      pz      :     0.010628  p :     0.021805
      px      :     0.007137
      py      :     0.004041
  5 H s       :     0.858325  s :     0.858325
      pz      :     0.012449  p :     0.023964
      px      :     0.006259
      py      :     0.005256
  6 H s       :     0.847705  s :     0.847705
      pz      :     0.011075  p :     0.024404
      px      :     0.007560
      py      :     0.005769


                     *******************************
                     * LOEWDIN POPULATION ANALYSIS *
                     *******************************

----------------------
LOEWDIN ATOMIC CHARGES
----------------------
   0 O :    0.077239
   1 C :   -0.290785
   2 C :   -0.216284
   3 H :    0.128347
   4 H :    0.109935
   5 H :    0.105249
   6 H :    0.086298

-------------------------------
LOEWDIN REDUCED ORBITAL CHARGES
-------------------------------
  0 O s       :     3.420375  s :     3.420375
      pz      :     1.747899  p :     4.411102
      px      :     1.295593
      py      :     1.367610
      dz2     :     0.011167  d :     0.085600
      dxz     :     0.007282
      dyz     :     0.012840
      dx2y2   :     0.028984
      dxy     :     0.025327
      f0      :     0.000526  f :     0.005684
      f+1     :     0.000256
      f-1     :     0.000787
      f+2     :     0.000145
      f-2     :     0.000831
      f+3     :     0.001096
      f-3     :     0.002043
  1 C s       :     2.869133  s :     2.869133
      pz      :     1.060832  p :     2.912049
      px      :     0.996764
      py      :     0.854453
      dz2     :     0.051072  d :     0.444630
      dxz     :     0.124667
      dyz     :     0.076400
      dx2y2   :     0.103834
      dxy     :     0.088656
      f0      :     0.008249  f :     0.064972
      f+1     :     0.005124
      f-1     :     0.005343
      f+2     :     0.008379
      f-2     :     0.006306
      f+3     :     0.014355
      f-3     :     0.017216
  2 C s       :     2.820139  s :     2.820139
      pz      :     1.081891  p :     2.930691
      px      :     1.011174
      py      :     0.837627
      dz2     :     0.056938  d :     0.406435
      dxz     :     0.098352
      dyz     :     0.075066
      dx2y2   :     0.090342
      dxy     :     0.085738
      f0      :     0.008772  f :     0.059019
      f+1     :     0.005511
      f-1     :     0.005146
      f+2     :     0.004626
      f-2     :     0.006662
      f+3     :     0.013533
      f-3     :     0.014770
  3 H s       :     0.823005  s :     0.823005
      pz      :     0.027132  p :     0.048648
      px      :     0.013785
      py      :     0.007731
  4 H s       :     0.824968  s :     0.824968
      pz      :     0.033043  p :     0.065097
      px      :     0.019838
      py      :     0.012215
  5 H s       :     0.820131  s :     0.820131
      pz      :     0.039219  p :     0.074620
      px      :     0.018699
      py      :     0.016703
  6 H s       :     0.831841  s :     0.831841
      pz      :     0.038426  p :     0.081861
      px      :     0.023693
      py      :     0.019742


                      *****************************
                      * MAYER POPULATION ANALYSIS *
                      *****************************

  NA   - Mulliken gross atomic population
  ZA   - Total nuclear charge
  QA   - Mulliken gross atomic charge
  VA   - Mayer's total valence
  BVA  - Mayer's bonded valence
  FA   - Mayer's free valence

  ATOM       NA         ZA         QA         VA         BVA        FA
  0 O      8.3118     8.0000    -0.3118     1.9840     1.9840     0.0000
  1 C      6.0974     6.0000    -0.0974     3.9301     3.9301     0.0000
  2 C      6.0829     6.0000    -0.0829     3.9891     3.9891    -0.0000
  3 H      0.8847     1.0000     0.1153     0.9620     0.9620    -0.0000
  4 H      0.8687     1.0000     0.1313     0.9639     0.9639     0.0000
  5 H      0.8823     1.0000     0.1177     0.9624     0.9624    -0.0000
  6 H      0.8721     1.0000     0.1279     0.9535     0.9535    -0.0000

  Mayer bond orders larger than 0.100000
B(  0-O ,  1-C ) :   0.9738 B(  0-O ,  2-C ) :   1.0016 B(  1-C ,  2-C ) :   1.0468 
B(  1-C ,  3-H ) :   0.9440 B(  1-C ,  4-H ) :   0.9570 B(  2-C ,  5-H ) :   0.9714 
B(  2-C ,  6-H ) :   0.9527 

-------
TIMINGS
-------

Total SCF time: 0 days 0 hours 0 min 2 sec 

Total time                  ....       2.502 sec
Sum of individual times     ....       2.315 sec  ( 92.5%)

Fock matrix formation       ....       2.049 sec  ( 81.9%)
  Split-RI-J                ....       0.232 sec  ( 11.3% of F)
  Chain of spheres X        ....       1.406 sec  ( 68.6% of F)
  XC integration            ....       0.389 sec  ( 19.0% of F)
    Basis function eval.    ....       0.104 sec  ( 26.9% of XC)
    Density eval.           ....       0.079 sec  ( 20.4% of XC)
    XC-Functional eval.     ....       0.022 sec  (  5.7% of XC)
    XC-Potential eval.      ....       0.139 sec  ( 35.8% of XC)
Diagonalization             ....       0.016 sec  (  0.6%)
Density matrix formation    ....       0.001 sec  (  0.1%)
Population analysis         ....       0.002 sec  (  0.1%)
Initial guess               ....       0.017 sec  (  0.7%)
Orbital Transformation      ....       0.000 sec  (  0.0%)
Orbital Orthonormalization  ....       0.000 sec  (  0.0%)
DIIS solution               ....       0.013 sec  (  0.5%)
SOSCF solution              ....       0.011 sec  (  0.4%)
Grid generation             ....       0.205 sec  (  8.2%)

Maximum memory used throughout the entire SCF-calculation: 61.0 MB


-------------------------------------------------------------------------------
                          DFT DISPERSION CORRECTION                            
                                                                               
                              DFTD3 V3.1  Rev 1                                
                          USING Becke-Johnson damping                          
-------------------------------------------------------------------------------
The PBE0 functional is recognized
Active option DFTDOPT                   ...         4   

molecular C6(AA) [au] = 351.203012 


            DFT-D V3
 parameters
 s6 scaling factor         :     1.0000 
 a1 scaling factor         :     0.4145 
 s8 scaling factor         :     1.2177 
 a2 scaling factor         :     4.8593 
 ad hoc parameters k1-k3   :    16.0000     1.3333    -4.0000 

 Edisp/kcal,au: -1.506766359923  -0.002401184781 
 E6   /kcal   :  -0.987540415 
 E8   /kcal   :  -0.519225945 
 % E8         :  34.459618885 

-------------------------   ----------------
Dispersion correction           -0.002401185
-------------------------   ----------------


-------------------------   --------------------
FINAL SINGLE POINT ENERGY      -153.645551683498
-------------------------   --------------------



           ************************************************************
           *        Program running with 8 parallel MPI-processes     *
           *              working on a common directory               *
           ************************************************************
------------------------------------------------------------------------------
                         ORCA SCF GRADIENT CALCULATION
------------------------------------------------------------------------------

 ... reading COSX grid (gridx3)
Gradient of the Kohn-Sham DFT energy:
Kohn-Sham wavefunction type      ... RKS
Hartree-Fock exchange scaling    ...    0.250
Number of operators              ...    1
Number of atoms                  ...    7
Basis set dimensions             ...  117
Integral neglect threshold       ... 2.5e-11
Integral primitive cutoff        ... 2.5e-12
SHARK Integral package           ... ON

Nuc. rep. gradient       (SHARK) ... done (  0.0 sec)
HCore & Overlap gradient (SHARK) ... done (  0.0 sec)
RI-J gradient            (SHARK) ... done (  0.1 sec)
COSX-gradient                    ... done (  0.3 sec)
Exchange-correlation gradient    ... done
Dispersion correction            ... done

------------------
CARTESIAN GRADIENT
------------------

   1   O   :   -0.014789026    0.034478870   -0.025248477
   2   C   :   -0.017367077   -0.023106980   -0.045896999
   3   C   :    0.139102260   -0.046360507    0.067178015
   4   H   :   -0.027767297   -0.008069972    0.039793638
   5   H   :   -0.003685686    0.013515341    0.005799040
   6   H   :   -0.031841157    0.013504772    0.041133334
   7   H   :   -0.043637467    0.015883405   -0.082981447

Difference to translation invariance:
           :    0.0000145495   -0.0001550728   -0.0002228975

Difference to rotation invariance:
           :   -0.0004367284    0.0000064130   -0.0002582041

Norm of the cartesian gradient     ...    0.2134920984
RMS gradient                       ...    0.0465877953
MAX gradient                       ...    0.1391022595

-------
TIMINGS
-------

Total SCF gradient time            ...        0.689 sec

One electron gradient       ....       0.010 sec  (  1.4%)
RI-J Coulomb gradient       ....       0.075 sec  ( 10.9%)
COSX gradient               ....       0.304 sec  ( 44.2%)
XC gradient                 ....       0.158 sec  ( 22.9%)

Maximum memory used throughout the entire SCFGRAD-calculation: 35.9 MB

                            ***************************************
                            *     ORCA property calculations      *
                            ***************************************

                                    ---------------------
                                    Active property flags
                                    ---------------------
   (+) Dipole Moment


------------------------------------------------------------------------------
                       ORCA ELECTRIC PROPERTIES CALCULATION
------------------------------------------------------------------------------

Dipole Moment Calculation                       ... on
Quadrupole Moment Calculation                   ... off
Polarizability Calculation                      ... off
GBWName                                         ... ox_gs_A_orca0036.gbw
Electron density                                ... ox_gs_A_orca0036.scfp
The origin for moment calculation is the CENTER OF MASS  = ( 0.098174, -0.059025  0.009185)

-------------
DIPOLE MOMENT
-------------
                                X             Y             Z
Electronic contribution:      0.30079       1.59184      -0.07830
Nuclear contribution   :     -0.25497      -2.33928       0.10883
                        -----------------------------------------
Total Dipole Moment    :      0.04581      -0.74744       0.03053
                        -----------------------------------------
Magnitude (a.u.)       :      0.74946
Magnitude (Debye)      :      1.90498



--------------------
Rotational spectrum 
--------------------
 
Rotational constants in cm-1:     0.846994     0.688075     0.446590 
Rotational constants in MHz : 25392.254147 20627.982131 13388.443967 

 Dipole components along the rotational axes: 
x,y,z [a.u.] :     0.122885    -0.738510    -0.034615 
x,y,z [Debye]:     0.312348    -1.877142    -0.087986 

 

Timings for individual modules:

Sum of individual times         ...        3.943 sec (=   0.066 min)
GTO integral calculation        ...        0.312 sec (=   0.005 min)   7.9 %
SCF iterations                  ...        2.702 sec (=   0.045 min)  68.5 %
SCF Gradient evaluation         ...        0.930 sec (=   0.015 min)  23.6 %
                             ****ORCA TERMINATED NORMALLY****
TOTAL RUN TIME: 0 days 0 hours 0 minutes 4 seconds 226 msec
