
                                 *****************
                                 * O   R   C   A *
                                 *****************

                                            #,                                       
                                            ###                                      
                                            ####                                     
                                            #####                                    
                                            ######                                   
                                           ########,                                 
                                     ,,################,,,,,                         
                               ,,#################################,,                 
                          ,,##########################################,,             
                       ,#########################################, ''#####,          
                    ,#############################################,,   '####,        
                  ,##################################################,,,,####,       
                ,###########''''           ''''###############################       
              ,#####''   ,,,,##########,,,,          '''####'''          '####       
            ,##' ,,,,###########################,,,                        '##       
           ' ,,###''''                  '''############,,,                           
         ,,##''                                '''############,,,,        ,,,,,,###''
      ,#''                                            '''#######################'''  
     '                                                          ''''####''''         
             ,#######,   #######,   ,#######,      ##                                
            ,#'     '#,  ##    ##  ,#'     '#,    #''#        ######   ,####,        
            ##       ##  ##   ,#'  ##            #'  '#       #        #'  '#        
            ##       ##  #######   ##           ,######,      #####,   #    #        
            '#,     ,#'  ##    ##  '#,     ,#' ,#      #,         ##   #,  ,#        
             '#######'   ##     ##  '#######'  #'      '#     #####' # '####'        



                  #######################################################
                  #                        -***-                        #
                  #          Department of theory and spectroscopy      #
                  #    Directorship and core code : Frank Neese         #
                  #        Max Planck Institute fuer Kohlenforschung    #
                  #                Kaiser Wilhelm Platz 1               #
                  #                 D-45470 Muelheim/Ruhr               #
                  #                      Germany                        #
                  #                                                     #
                  #                  All rights reserved                #
                  #                        -***-                        #
                  #######################################################


                         Program Version 5.0.2 -  RELEASE  -


 With contributions from (in alphabetic order):
   Daniel Aravena         : Magnetic Suceptibility
   Michael Atanasov       : Ab Initio Ligand Field Theory (pilot matlab implementation)
   Alexander A. Auer      : GIAO ZORA, VPT2 properties, NMR spectrum
   Ute Becker             : Parallelization
   Giovanni Bistoni       : ED, misc. LED, open-shell LED, HFLD
   Martin Brehm           : Molecular dynamics
   Dmytro Bykov           : SCF Hessian
   Vijay G. Chilkuri      : MRCI spin determinant printing, contributions to CSF-ICE
   Dipayan Datta          : RHF DLPNO-CCSD density
   Achintya Kumar Dutta   : EOM-CC, STEOM-CC
   Dmitry Ganyushin       : Spin-Orbit,Spin-Spin,Magnetic field MRCI
   Miquel Garcia          : C-PCM and meta-GGA Hessian, CC/C-PCM, Gaussian charge scheme
   Yang Guo               : DLPNO-NEVPT2, F12-NEVPT2, CIM, IAO-localization
   Andreas Hansen         : Spin unrestricted coupled pair/coupled cluster methods
   Benjamin Helmich-Paris : MC-RPA, TRAH-SCF, COSX integrals
   Lee Huntington         : MR-EOM, pCC
   Robert Izsak           : Overlap fitted RIJCOSX, COSX-SCS-MP3, EOM
   Marcus Kettner         : VPT2
   Christian Kollmar      : KDIIS, OOCD, Brueckner-CCSD(T), CCSD density, CASPT2, CASPT2-K
   Simone Kossmann        : Meta GGA functionals, TD-DFT gradient, OOMP2, MP2 Hessian
   Martin Krupicka        : Initial AUTO-CI
   Lucas Lang             : DCDCAS
   Marvin Lechner         : AUTO-CI (C++ implementation), FIC-MRCC
   Dagmar Lenk            : GEPOL surface, SMD
   Dimitrios Liakos       : Extrapolation schemes; Compound Job, initial MDCI parallelization
   Dimitrios Manganas     : Further ROCIS development; embedding schemes
   Dimitrios Pantazis     : SARC Basis sets
   Anastasios Papadopoulos: AUTO-CI, single reference methods and gradients
   Taras Petrenko         : DFT Hessian,TD-DFT gradient, ASA, ECA, R-Raman, ABS, FL, XAS/XES, NRVS
   Peter Pinski           : DLPNO-MP2, DLPNO-MP2 Gradient
   Christoph Reimann      : Effective Core Potentials
   Marius Retegan         : Local ZFS, SOC
   Christoph Riplinger    : Optimizer, TS searches, QM/MM, DLPNO-CCSD(T), (RO)-DLPNO pert. Triples
   Tobias Risthaus        : Range-separated hybrids, TD-DFT gradient, RPA, STAB
   Michael Roemelt        : Original ROCIS implementation
   Masaaki Saitow         : Open-shell DLPNO-CCSD energy and density
   Barbara Sandhoefer     : DKH picture change effects
   Avijit Sen             : IP-ROCIS
   Kantharuban Sivalingam : CASSCF convergence, NEVPT2, FIC-MRCI
   Bernardo de Souza      : ESD, SOC TD-DFT
   Georgi Stoychev        : AutoAux, RI-MP2 NMR, DLPNO-MP2 response
   Willem Van den Heuvel  : Paramagnetic NMR
   Boris Wezisla          : Elementary symmetry handling
   Frank Wennmohs         : Technical directorship


 We gratefully acknowledge several colleagues who have allowed us to
 interface, adapt or use parts of their codes:
   Stefan Grimme, W. Hujo, H. Kruse, P. Pracht,  : VdW corrections, initial TS optimization,
                  C. Bannwarth, S. Ehlert          DFT functionals, gCP, sTDA/sTD-DF
   Ed Valeev, F. Pavosevic, A. Kumar             : LibInt (2-el integral package), F12 methods
   Garnet Chan, S. Sharma, J. Yang, R. Olivares  : DMRG
   Ulf Ekstrom                                   : XCFun DFT Library
   Mihaly Kallay                                 : mrcc  (arbitrary order and MRCC methods)
   Jiri Pittner, Ondrej Demel                    : Mk-CCSD
   Frank Weinhold                                : gennbo (NPA and NBO analysis)
   Christopher J. Cramer and Donald G. Truhlar   : smd solvation model
   Lars Goerigk                                  : TD-DFT with DH, B97 family of functionals
   V. Asgeirsson, H. Jonsson                     : NEB implementation
   FAccTs GmbH                                   : IRC, NEB, NEB-TS, DLPNO-Multilevel, CI-OPT
                                                   MM, QMMM, 2- and 3-layer-ONIOM, Crystal-QMMM,
                                                   LR-CPCM, SF, NACMEs, symmetry and pop. for TD-DFT,
                                                   nearIR, NL-DFT gradient (VV10), updates on ESD,
                                                   ML-optimized integration grids
   S Lehtola, MJT Oliveira, MAL Marques          : LibXC Library
   Liviu Ungur et al                             : ANISO software


 Your calculation uses the libint2 library for the computation of 2-el integrals
 For citations please refer to: http://libint.valeyev.net

 Your ORCA version has been built with support for libXC version: 5.1.0
 For citations please refer to: https://tddft.org/programs/libxc/

 This ORCA versions uses:
   CBLAS   interface :  Fast vector & matrix operations
   LAPACKE interface :  Fast linear algebra routines
   SCALAPACK package :  Parallel linear algebra routines
   Shared memory     :  Shared parallel matrices
   BLAS/LAPACK       :  OpenBLAS 0.3.15  USE64BITINT DYNAMIC_ARCH NO_AFFINITY SkylakeX SINGLE_THREADED
        Core in use  :  SkylakeX
   Copyright (c) 2011-2014, The OpenBLAS Project


Your calculation utilizes the atom-pairwise dispersion correction
with the Becke-Johnson damping scheme (D3BJ)
Cite in your paper:
S.Grimme, S.Ehrlich, L.Goerigk, J Comput Chem, (2011), 32, 1456–1465 
S.Grimme, J.Antony, S.Ehrlich and H.Krieg, J.Chem.Phys., 132, (2010), 154104 
   

================================================================================

----- Orbital basis set information -----
Your calculation utilizes the basis: def2-TZVP
   F. Weigend and R. Ahlrichs, Phys. Chem. Chem. Phys. 7, 3297 (2005).

----- AuxJ basis set information -----
Your calculation utilizes the auxiliary basis: def2/J
   F. Weigend, Phys. Chem. Chem. Phys. 8, 1057 (2006).

================================================================================
                                        WARNINGS
                       Please study these warnings very carefully!
================================================================================


INFO   : the flag for use of the SHARK integral package has been found!

================================================================================
                                       INPUT FILE
================================================================================
NAME = ox_gs_A_orca0032.inp
|  1> ! engrad PBE0 D3BJ def2-TZVP  
|  2> %pal nprocs 8 end
|  3> %maxcore 3000
|  4>  
|  5> *xyz 0 1 
|  6> O   -0.01713432970401744 0.7483522667002105 -0.07037547473589106
|  7> C   -0.7677804243795437 -0.5025492822732914 0.08761352217118114
|  8> C   0.775673459657373 -0.38344273525029204 0.03608360320216176
|  9> H   -1.3202755185608614 -0.6944968233139887 0.9444449480613959
| 10> H   -1.3249291604445972 -0.6326209884913806 -0.9319924899079067
| 11> H   1.24508177962252 -0.6327228615898255 -0.897763054425698
| 12> H   1.245774561709046 -0.6103043198317876 0.8659230036200051
| 13> *
| 14> 
| 15>                          ****END OF INPUT****
================================================================================

                     *******************************
                     * Energy+Gradient Calculation *
                     *******************************

---------------------------------
CARTESIAN COORDINATES (ANGSTROEM)
---------------------------------
  O     -0.017134    0.748352   -0.070375
  C     -0.767780   -0.502549    0.087614
  C      0.775673   -0.383443    0.036084
  H     -1.320276   -0.694497    0.944445
  H     -1.324929   -0.632621   -0.931992
  H      1.245082   -0.632723   -0.897763
  H      1.245775   -0.610304    0.865923

----------------------------
CARTESIAN COORDINATES (A.U.)
----------------------------
  NO LB      ZA    FRAG     MASS         X           Y           Z
   0 O     8.0000    0    15.999   -0.032379    1.414181   -0.132990
   1 C     6.0000    0    12.011   -1.450895   -0.949681    0.165566
   2 C     6.0000    0    12.011    1.465810   -0.724602    0.068188
   3 H     1.0000    0     1.008   -2.494959   -1.312409    1.784742
   4 H     1.0000    0     1.008   -2.503753   -1.195480   -1.761211
   5 H     1.0000    0     1.008    2.352864   -1.195673   -1.696526
   6 H     1.0000    0     1.008    2.354173   -1.153308    1.636357

--------------------------------
INTERNAL COORDINATES (ANGSTROEM)
--------------------------------
 O      0   0   0     0.000000000000     0.00000000     0.00000000
 C      1   0   0     1.467373424804     0.00000000     0.00000000
 C      1   2   0     1.385942874937    65.68236618     0.00000000
 H      2   1   3     1.037426999841   121.27117409   112.96259082
 H      2   1   3     1.169157723631   104.16537221   246.69880605
 H      3   1   2     1.074501899581   111.87575924   108.81347726
 H      3   1   2     0.980354351852   121.89043392   256.97001382

---------------------------
INTERNAL COORDINATES (A.U.)
---------------------------
 O      0   0   0     0.000000000000     0.00000000     0.00000000
 C      1   0   0     2.772933909073     0.00000000     0.00000000
 C      1   2   0     2.619052470890    65.68236618     0.00000000
 H      2   1   3     1.960452913635   121.27117409   112.96259082
 H      2   1   3     2.209387905021   104.16537221   246.69880605
 H      3   1   2     2.030514320586   111.87575924   108.81347726
 H      3   1   2     1.852601239198   121.89043392   256.97001382

---------------------
BASIS SET INFORMATION
---------------------
There are 3 groups of distinct atoms

 Group   1 Type O   : 11s6p2d1f contracted to 5s3p2d1f pattern {62111/411/11/1}
 Group   2 Type C   : 11s6p2d1f contracted to 5s3p2d1f pattern {62111/411/11/1}
 Group   3 Type H   : 5s1p contracted to 3s1p pattern {311/1}

Atom   0O    basis set group =>   1
Atom   1C    basis set group =>   2
Atom   2C    basis set group =>   2
Atom   3H    basis set group =>   3
Atom   4H    basis set group =>   3
Atom   5H    basis set group =>   3
Atom   6H    basis set group =>   3
---------------------------------
AUXILIARY/J BASIS SET INFORMATION
---------------------------------
There are 3 groups of distinct atoms

 Group   1 Type O   : 12s5p4d2f1g contracted to 6s4p3d1f1g pattern {711111/2111/211/2/1}
 Group   2 Type C   : 12s5p4d2f1g contracted to 6s4p3d1f1g pattern {711111/2111/211/2/1}
 Group   3 Type H   : 5s2p1d contracted to 3s1p1d pattern {311/2/1}

Atom   0O    basis set group =>   1
Atom   1C    basis set group =>   2
Atom   2C    basis set group =>   2
Atom   3H    basis set group =>   3
Atom   4H    basis set group =>   3
Atom   5H    basis set group =>   3
Atom   6H    basis set group =>   3


           ************************************************************
           *        Program running with 8 parallel MPI-processes     *
           *              working on a common directory               *
           ************************************************************
------------------------------------------------------------------------------
                           ORCA GTO INTEGRAL CALCULATION
                           -- RI-GTO INTEGRALS CHOSEN --
------------------------------------------------------------------------------
------------------------------------------------------------------------------
                   ___                                                        
                  /   \      - P O W E R E D   B Y -                         
                 /     \                                                     
                 |  |  |   _    _      __       _____    __    __             
                 |  |  |  | |  | |    /  \     |  _  \  |  |  /  |          
                  \  \/   | |  | |   /    \    | | | |  |  | /  /          
                 / \  \   | |__| |  /  /\  \   | |_| |  |  |/  /          
                |  |  |   |  __  | /  /__\  \  |    /   |      \           
                |  |  |   | |  | | |   __   |  |    \   |  |\   \          
                \     /   | |  | | |  |  |  |  | |\  \  |  | \   \       
                 \___/    |_|  |_| |__|  |__|  |_| \__\ |__|  \__/        
                                                                              
                      - O R C A' S   B I G   F R I E N D -                    
                                      &                                       
                       - I N T E G R A L  F E E D E R -                       
                                                                              
 v1 FN, 2020, v2 2021                                                         
------------------------------------------------------------------------------


Reading SHARK input file ox_gs_A_orca0032.SHARKINP.tmp ... ok
----------------------
SHARK INTEGRAL PACKAGE
----------------------

Number of atoms                             ...      7
Number of basis functions                   ...    117
Number of shells                            ...     49
Maximum angular momentum                    ...      3
Integral batch strategy                     ... SHARK/LIBINT Hybrid
RI-J (if used) integral strategy            ... SPLIT-RIJ (Revised 2003 algorithm where possible)
Printlevel                                  ...      1
Contraction scheme used                     ... SEGMENTED contraction
Coulomb Range Separation                    ... NOT USED
Exchange Range Separation                   ... NOT USED
Finite Nucleus Model                        ... NOT USED
Auxiliary Coulomb fitting basis             ... AVAILABLE
   # of basis functions in Aux-J            ...    191
   # of shells in Aux-J                     ...     65
   Maximum angular momentum in Aux-J        ...      4
Auxiliary J/K fitting basis                 ... NOT available
Auxiliary Correlation fitting basis         ... NOT available
Auxiliary 'external' fitting basis          ... NOT available
Integral threshold                          ...     2.500000e-11
Primitive cut-off                           ...     2.500000e-12
Primitive pair pre-selection threshold      ...     2.500000e-12

Calculating pre-screening integrals         ... done (  0.0 sec) Dimension = 49
Organizing shell pair data                  ... done (  0.0 sec)
Shell pair information
Total number of shell pairs                 ...      1225
Shell pairs after pre-screening             ...      1220
Total number of primitive shell pairs       ...      3648
Primitive shell pairs kept                  ...      3150
          la=0 lb=0:    373 shell pairs
          la=1 lb=0:    351 shell pairs
          la=1 lb=1:     91 shell pairs
          la=2 lb=0:    162 shell pairs
          la=2 lb=1:     78 shell pairs
          la=2 lb=2:     21 shell pairs
          la=3 lb=0:     81 shell pairs
          la=3 lb=1:     39 shell pairs
          la=3 lb=2:     18 shell pairs
          la=3 lb=3:      6 shell pairs

Calculating one electron integrals          ... done (  0.0 sec)
Calculating RI/J V-Matrix + Cholesky decomp.... done (  0.0 sec)
Calculating Nuclear repulsion               ... done (  0.0 sec) ENN=     74.926423882822 Eh

SHARK setup successfully completed in   0.1 seconds

Maximum memory used throughout the entire GTOINT-calculation: 14.9 MB


           ************************************************************
           *        Program running with 8 parallel MPI-processes     *
           *              working on a common directory               *
           ************************************************************
-------------------------------------------------------------------------------
                                 ORCA SCF
-------------------------------------------------------------------------------

------------
SCF SETTINGS
------------
Hamiltonian:
 Density Functional     Method          .... DFT(GTOs)
 Exchange Functional    Exchange        .... PBE
   PBE kappa parameter   XKappa         ....  0.804000
   PBE mue parameter    XMuePBE         ....  0.219520
 Correlation Functional Correlation     .... PBE
   PBE beta parameter  CBetaPBE         ....  0.066725
 LDA part of GGA corr.  LDAOpt          .... PW91-LDA
 Gradients option       PostSCFGGA      .... off
 Hybrid DFT is turned on
   Fraction HF Exchange ScalHFX         ....  0.250000
   Scaling of DF-GGA-X  ScalDFX         ....  0.750000
   Scaling of DF-GGA-C  ScalDFC         ....  1.000000
   Scaling of DF-LDA-C  ScalLDAC        ....  1.000000
   Perturbative correction              ....  0.000000
   Density functional embedding theory  .... OFF
   NL short-range parameter             ....  6.900000
 RI-approximation to the Coulomb term is turned on
   Number of AuxJ basis functions       .... 191
   RIJ-COSX (HFX calculated with COS-X)).... on


General Settings:
 Integral files         IntName         .... ox_gs_A_orca0032
 Hartree-Fock type      HFTyp           .... RHF
 Total Charge           Charge          ....    0
 Multiplicity           Mult            ....    1
 Number of Electrons    NEL             ....   24
 Basis Dimension        Dim             ....  117
 Nuclear Repulsion      ENuc            ....     74.9264238828 Eh

Convergence Acceleration:
 DIIS                   CNVDIIS         .... on
   Start iteration      DIISMaxIt       ....    12
   Startup error        DIISStart       ....  0.200000
   # of expansion vecs  DIISMaxEq       ....     5
   Bias factor          DIISBfac        ....   1.050
   Max. coefficient     DIISMaxC        ....  10.000
 Trust-Rad. Augm. Hess. CNVTRAH         .... auto
   Auto Start mean grad. ratio tolernc. ....  1.125000
   Auto Start start iteration           ....    20
   Auto Start num. interpolation iter.  ....    10
   Max. Number of Micro iterations      ....    16
   Max. Number of Macro iterations      .... Maxiter - #DIIS iter
   Number of Davidson start vectors     ....     2
   Converg. threshold I  (grad. norm)   ....   1.000e-05
   Converg. threshold II (energy diff.) ....   1.000e-08
   Grad. Scal. Fac. for Micro threshold ....   0.100
   Minimum threshold for Micro iter.    ....   0.010
   NR start threshold (gradient norm)   ....   0.001
   Initial trust radius                 ....   0.400
   Minimum AH scaling param. (alpha)    ....   1.000
   Maximum AH scaling param. (alpha)    .... 1000.000
   Orbital update algorithm             .... Taylor
   White noise on init. David. guess    .... on
   Maximum white noise                  ....   0.010
   Quad. conv. algorithm                .... NR
 SOSCF                  CNVSOSCF        .... on
   Start iteration      SOSCFMaxIt      ....   150
   Startup grad/error   SOSCFStart      ....  0.003300
 Level Shifting         CNVShift        .... on
   Level shift para.    LevelShift      ....    0.2500
   Turn off err/grad.   ShiftErr        ....    0.0010
 Zerner damping         CNVZerner       .... off
 Static damping         CNVDamp         .... on
   Fraction old density DampFac         ....    0.7000
   Max. Damping (<1)    DampMax         ....    0.9800
   Min. Damping (>=0)   DampMin         ....    0.0000
   Turn off err/grad.   DampErr         ....    0.1000
 Fernandez-Rico         CNVRico         .... off

SCF Procedure:
 Maximum # iterations   MaxIter         ....   125
 SCF integral mode      SCFMode         .... Direct
   Integral package                     .... SHARK and LIBINT hybrid scheme
 Reset frequency        DirectResetFreq ....    20
 Integral Threshold     Thresh          ....  2.500e-11 Eh
 Primitive CutOff       TCut            ....  2.500e-12 Eh

Convergence Tolerance:
 Convergence Check Mode ConvCheckMode   .... Total+1el-Energy
 Convergence forced     ConvForced      .... 0
 Energy Change          TolE            ....  1.000e-08 Eh
 1-El. energy change                    ....  1.000e-05 Eh
 Orbital Gradient       TolG            ....  1.000e-05
 Orbital Rotation angle TolX            ....  1.000e-05
 DIIS Error             TolErr          ....  5.000e-07


Diagonalization of the overlap matrix:
Smallest eigenvalue                        ... 6.391e-04
Time for diagonalization                   ...    0.002 sec
Threshold for overlap eigenvalues          ... 1.000e-08
Number of eigenvalues below threshold      ... 0
Time for construction of square roots      ...    0.001 sec
Total time needed                          ...    0.003 sec

Time for model grid setup =    0.023 sec

------------------------------
INITIAL GUESS: MODEL POTENTIAL
------------------------------
Loading Hartree-Fock densities                     ... done
Calculating cut-offs                               ... done
Initializing the effective Hamiltonian             ... done
Setting up the integral package (SHARK)            ... done
Starting the Coulomb interaction                   ... done (   0.0 sec)
Reading the grid                                   ... done
Mapping shells                                     ... done
Starting the XC term evaluation                    ... done (   0.0 sec)
  promolecular density results
     # of electrons  =     23.997239118
     EX              =    -19.541111505
     EC              =     -0.781268836
     EX+EC           =    -20.322380341
Transforming the Hamiltonian                       ... done (   0.0 sec)
Diagonalizing the Hamiltonian                      ... done (   0.0 sec)
Back transforming the eigenvectors                 ... done (   0.0 sec)
Now organizing SCF variables                       ... done
                      ------------------
                      INITIAL GUESS DONE (   0.0 sec)
                      ------------------
-------------------
DFT GRID GENERATION
-------------------

General Integration Accuracy     IntAcc      ... 4.388
Radial Grid Type                 RadialGrid  ... OptM3 with GC (2021)
Angular Grid (max. ang.)         AngularGrid ... 4 (Lebedev-302)
Angular grid pruning method      GridPruning ... 4 (adaptive)
Weight generation scheme         WeightScheme... Becke
Basis function cutoff            BFCut       ... 1.0000e-11
Integration weight cutoff        WCut        ... 1.0000e-14
Angular grids for H and He will be reduced by one unit
Partially contracted basis set               ... off
Rotationally invariant grid construction     ... off

Total number of grid points                  ...    31314
Total number of batches                      ...      493
Average number of points per batch           ...       63
Average number of grid points per atom       ...     4473
Time for grid setup =    0.112 sec

--------------------
COSX GRID GENERATION
--------------------

GRIDX 1
-------
General Integration Accuracy     IntAcc      ... 3.816
Radial Grid Type                 RadialGrid  ... OptM3 with GC (2021)
Angular Grid (max. ang.)         AngularGrid ... 1 (Lebedev-50)
Angular grid pruning method      GridPruning ... 4 (adaptive)
Weight generation scheme         WeightScheme... Becke
Basis function cutoff            BFCut       ... 1.0000e-11
Integration weight cutoff        WCut        ... 1.0000e-14
Angular grids for H and He will be reduced by one unit
Partially contracted basis set               ... on
Rotationally invariant grid construction     ... off

Total number of grid points                  ...     4037
Total number of batches                      ...       67
Average number of points per batch           ...       60
Average number of grid points per atom       ...      577
UseSFitting                                  ... on

GRIDX 2
-------
General Integration Accuracy     IntAcc      ... 4.020
Radial Grid Type                 RadialGrid  ... OptM3 with GC (2021)
Angular Grid (max. ang.)         AngularGrid ... 2 (Lebedev-110)
Angular grid pruning method      GridPruning ... 4 (adaptive)
Weight generation scheme         WeightScheme... Becke
Basis function cutoff            BFCut       ... 1.0000e-11
Integration weight cutoff        WCut        ... 1.0000e-14
Angular grids for H and He will be reduced by one unit
Partially contracted basis set               ... on
Rotationally invariant grid construction     ... off

Total number of grid points                  ...     8721
Total number of batches                      ...      139
Average number of points per batch           ...       62
Average number of grid points per atom       ...     1246
UseSFitting                                  ... on

GRIDX 3
-------
General Integration Accuracy     IntAcc      ... 4.338
Radial Grid Type                 RadialGrid  ... OptM3 with GC (2021)
Angular Grid (max. ang.)         AngularGrid ... 3 (Lebedev-194)
Angular grid pruning method      GridPruning ... 4 (adaptive)
Weight generation scheme         WeightScheme... Becke
Basis function cutoff            BFCut       ... 1.0000e-11
Integration weight cutoff        WCut        ... 1.0000e-14
Angular grids for H and He will be reduced by one unit
Partially contracted basis set               ... on
Rotationally invariant grid construction     ... off

Total number of grid points                  ...    19238
Total number of batches                      ...      304
Average number of points per batch           ...       63
Average number of grid points per atom       ...     2748
UseSFitting                                  ... on

Time for X-Grid setup             =    0.074 sec

--------------
SCF ITERATIONS
--------------
ITER       Energy         Delta-E        Max-DP      RMS-DP      [F,P]     Damp
               ***  Starting incremental Fock matrix formation  ***
  0   -153.5855551488   0.000000000000 0.03276829  0.00115055  0.1747743 0.7000
  1   -153.6135616074  -0.028006458643 0.01776499  0.00085379  0.0740792 0.7000
                               ***Turning on DIIS***
  2   -153.6252255168  -0.011663909353 0.02802237  0.00146122  0.0323441 0.0000
  3   -153.6443490794  -0.019123562628 0.01385499  0.00064046  0.0395255 0.0000
  4   -153.6478028507  -0.003453771327 0.00377555  0.00017021  0.0084120 0.0000
  5   -153.6479891644  -0.000186313665 0.00138118  0.00005804  0.0033992 0.0000
                      *** Initiating the SOSCF procedure ***
                           *** Shutting down DIIS ***
                      *** Re-Reading the Fockian *** 
                      *** Removing any level shift *** 
ITER      Energy       Delta-E        Grad      Rot      Max-DP    RMS-DP
  6   -153.64800963  -0.0000204619  0.000091  0.000091  0.000846  0.000027
               *** Restarting incremental Fock matrix formation ***
  7   -153.64799687   0.0000127578  0.000045  0.000105  0.000107  0.000005
  8   -153.64799682   0.0000000478  0.000070  0.000074  0.000068  0.000003
  9   -153.64799692  -0.0000001030  0.000007  0.000010  0.000018  0.000001
 10   -153.64799692   0.0000000017  0.000010  0.000006  0.000011  0.000000
                  ***Gradient check signals convergence***
              ***Rediagonalizing the Fockian in SOSCF/NRSCF***

               *****************************************************
               *                     SUCCESS                       *
               *           SCF CONVERGED AFTER  11 CYCLES          *
               *****************************************************

Old exchange energy                            =     -4.998444586 Eh
New exchange energy                            =     -4.998447579 Eh
Exchange energy change after final integration =     -0.000002993 Eh
Total energy after final integration           =   -153.647999918 Eh
Final COS-X integration done in                =     0.270 sec

----------------
TOTAL SCF ENERGY
----------------

Total Energy       :         -153.64799992 Eh           -4180.97463 eV

Components:
Nuclear Repulsion  :           74.92642388 Eh            2038.85165 eV
Electronic Energy  :         -228.57442380 Eh           -6219.82628 eV
One Electron Energy:         -356.48721897 Eh           -9700.51039 eV
Two Electron Energy:          127.91279517 Eh            3480.68411 eV
Max COSX asymmetry :            0.00000172 Eh               0.00005 eV

Virial components:
Potential Energy   :         -306.66287871 Eh           -8344.72117 eV
Kinetic Energy     :          153.01487880 Eh            4163.74653 eV
Virial Ratio       :            2.00413764


DFT components:
N(Alpha)           :       12.000000000110 electrons
N(Beta)            :       12.000000000110 electrons
N(Total)           :       24.000000000219 electrons
E(X)               :      -14.966380803117 Eh       
E(C)               :       -0.789567401338 Eh       
E(XC)              :      -15.755948204454 Eh       
DFET-embed. en.    :        0.000000000000 Eh       

---------------
SCF CONVERGENCE
---------------

  Last Energy change         ...   -2.1623e-09  Tolerance :   1.0000e-08
  Last MAX-Density change    ...    5.5511e-16  Tolerance :   1.0000e-07
  Last RMS-Density change    ...    1.4799e-17  Tolerance :   5.0000e-09
  Last Orbital Gradient      ...    6.2589e-07  Tolerance :   1.0000e-05
  Last Orbital Rotation      ...    1.0658e-06  Tolerance :   1.0000e-05

             **** THE GBW FILE WAS UPDATED (ox_gs_A_orca0032.gbw) ****
             **** DENSITY ox_gs_A_orca0032.scfp WAS UPDATED ****
             **** ENERGY FILE WAS UPDATED (ox_gs_A_orca0032.en.tmp) ****
             **** THE GBW FILE WAS UPDATED (ox_gs_A_orca0032.gbw) ****
             **** DENSITY ox_gs_A_orca0032.scfp WAS UPDATED ****
----------------
ORBITAL ENERGIES
----------------

  NO   OCC          E(Eh)            E(eV) 
   0   2.0000     -19.222508      -523.0710 
   1   2.0000     -10.282660      -279.8054 
   2   2.0000     -10.270146      -279.4649 
   3   2.0000      -1.102053       -29.9884 
   4   2.0000      -0.695275       -18.9194 
   5   2.0000      -0.668090       -18.1797 
   6   2.0000      -0.533006       -14.5038 
   7   2.0000      -0.495504       -13.4833 
   8   2.0000      -0.440513       -11.9870 
   9   2.0000      -0.393644       -10.7116 
  10   2.0000      -0.315134        -8.5752 
  11   2.0000      -0.287963        -7.8359 
  12   0.0000       0.059612         1.6221 
  13   0.0000       0.068411         1.8616 
  14   0.0000       0.078528         2.1368 
  15   0.0000       0.108376         2.9491 
  16   0.0000       0.111856         3.0437 
  17   0.0000       0.151887         4.1331 
  18   0.0000       0.192868         5.2482 
  19   0.0000       0.207784         5.6541 
  20   0.0000       0.265719         7.2306 
  21   0.0000       0.269468         7.3326 
  22   0.0000       0.291733         7.9385 
  23   0.0000       0.330384         8.9902 
  24   0.0000       0.374006        10.1772 
  25   0.0000       0.381420        10.3790 
  26   0.0000       0.409497        11.1430 
  27   0.0000       0.420463        11.4414 
  28   0.0000       0.455450        12.3934 
  29   0.0000       0.475862        12.9489 
  30   0.0000       0.500078        13.6078 
  31   0.0000       0.533938        14.5292 
  32   0.0000       0.551701        15.0126 
  33   0.0000       0.696964        18.9654 
  34   0.0000       0.709282        19.3005 
  35   0.0000       0.730443        19.8764 
  36   0.0000       0.829504        22.5720 
  37   0.0000       0.836159        22.7530 
  38   0.0000       0.904063        24.6008 
  39   0.0000       0.938959        25.5504 
  40   0.0000       1.009871        27.4800 
  41   0.0000       1.017383        27.6844 
  42   0.0000       1.053038        28.6546 
  43   0.0000       1.071690        29.1622 
  44   0.0000       1.146024        31.1849 
  45   0.0000       1.349550        36.7231 
  46   0.0000       1.451369        39.4938 
  47   0.0000       1.491073        40.5742 
  48   0.0000       1.507237        41.0140 
  49   0.0000       1.523389        41.4535 
  50   0.0000       1.605753        43.6948 
  51   0.0000       1.622833        44.1595 
  52   0.0000       1.661463        45.2107 
  53   0.0000       1.707443        46.4619 
  54   0.0000       1.787496        48.6402 
  55   0.0000       1.802551        49.0499 
  56   0.0000       1.855762        50.4979 
  57   0.0000       1.903668        51.8015 
  58   0.0000       1.927240        52.4429 
  59   0.0000       1.952683        53.1352 
  60   0.0000       2.144705        58.3604 
  61   0.0000       2.164062        58.8871 
  62   0.0000       2.201086        59.8946 
  63   0.0000       2.228833        60.6496 
  64   0.0000       2.252799        61.3018 
  65   0.0000       2.423796        65.9548 
  66   0.0000       2.459288        66.9206 
  67   0.0000       2.474529        67.3353 
  68   0.0000       2.537457        69.0477 
  69   0.0000       2.587409        70.4070 
  70   0.0000       2.639036        71.8118 
  71   0.0000       2.680694        72.9454 
  72   0.0000       2.687239        73.1235 
  73   0.0000       2.749367        74.8141 
  74   0.0000       2.765072        75.2414 
  75   0.0000       2.829905        77.0056 
  76   0.0000       2.885254        78.5117 
  77   0.0000       2.938621        79.9639 
  78   0.0000       2.996409        81.5364 
  79   0.0000       3.020572        82.1939 
  80   0.0000       3.047070        82.9150 
  81   0.0000       3.086455        83.9867 
  82   0.0000       3.139646        85.4341 
  83   0.0000       3.248382        88.3930 
  84   0.0000       3.282147        89.3117 
  85   0.0000       3.292291        89.5878 
  86   0.0000       3.380680        91.9930 
  87   0.0000       3.422956        93.1434 
  88   0.0000       3.555668        96.7546 
  89   0.0000       3.597431        97.8911 
  90   0.0000       3.644669        99.1765 
  91   0.0000       3.713397       101.0467 
  92   0.0000       3.808300       103.6291 
  93   0.0000       3.967883       107.9716 
  94   0.0000       4.047843       110.1474 
  95   0.0000       4.063918       110.5848 
  96   0.0000       4.275274       116.3361 
  97   0.0000       4.299741       117.0019 
  98   0.0000       4.411676       120.0478 
  99   0.0000       4.601363       125.2095 
 100   0.0000       4.693056       127.7046 
 101   0.0000       4.875498       132.6690 
 102   0.0000       5.322912       144.8438 
 103   0.0000       5.469508       148.8329 
 104   0.0000       5.680550       154.5756 
 105   0.0000       5.795538       157.7046 
 106   0.0000       5.857804       159.3989 
 107   0.0000       5.881901       160.0547 
 108   0.0000       6.070220       165.1791 
 109   0.0000       6.642346       180.7474 
 110   0.0000       6.661919       181.2800 
 111   0.0000       6.792651       184.8374 
 112   0.0000       6.965361       189.5371 
 113   0.0000       7.195808       195.8079 
 114   0.0000      22.214596       604.4899 
 115   0.0000      22.559028       613.8624 
 116   0.0000      43.866430      1193.6663 

                    ********************************
                    * MULLIKEN POPULATION ANALYSIS *
                    ********************************

-----------------------
MULLIKEN ATOMIC CHARGES
-----------------------
   0 O :   -0.306353
   1 C :   -0.126939
   2 C :   -0.042761
   3 H :    0.136054
   4 H :    0.123866
   5 H :    0.103319
   6 H :    0.112814
Sum of atomic charges:   -0.0000000

--------------------------------
MULLIKEN REDUCED ORBITAL CHARGES
--------------------------------
  0 O s       :     3.848324  s :     3.848324
      pz      :     1.832072  p :     4.412351
      px      :     1.289986
      py      :     1.290293
      dz2     :     0.005587  d :     0.043532
      dxz     :     0.003164
      dyz     :     0.006798
      dx2y2   :     0.012207
      dxy     :     0.015775
      f0      :     0.000269  f :     0.002146
      f+1     :     0.000209
      f-1     :     0.000430
      f+2     :     0.000086
      f-2     :     0.000250
      f+3     :     0.000322
      f-3     :     0.000581
  1 C s       :     3.256164  s :     3.256164
      pz      :     1.049970  p :     2.760235
      px      :     0.906066
      py      :     0.804198
      dz2     :     0.007903  d :     0.099752
      dxz     :     0.023843
      dyz     :     0.025968
      dx2y2   :     0.025648
      dxy     :     0.016390
      f0      :     0.001386  f :     0.010789
      f+1     :     0.001440
      f-1     :     0.000591
      f+2     :     0.001230
      f-2     :     0.001472
      f+3     :     0.002204
      f-3     :     0.002466
  2 C s       :     3.209110  s :     3.209110
      pz      :     1.037639  p :     2.709023
      px      :     0.877720
      py      :     0.793663
      dz2     :     0.006641  d :     0.112709
      dxz     :     0.026163
      dyz     :     0.030156
      dx2y2   :     0.029526
      dxy     :     0.020223
      f0      :     0.001643  f :     0.011919
      f+1     :     0.001541
      f-1     :     0.000690
      f+2     :     0.000854
      f-2     :     0.002016
      f+3     :     0.002327
      f-3     :     0.002847
  3 H s       :     0.840924  s :     0.840924
      pz      :     0.010836  p :     0.023022
      px      :     0.007582
      py      :     0.004604
  4 H s       :     0.857182  s :     0.857182
      pz      :     0.010403  p :     0.018951
      px      :     0.005120
      py      :     0.003429
  5 H s       :     0.874926  s :     0.874926
      pz      :     0.011338  p :     0.021756
      px      :     0.005952
      py      :     0.004466
  6 H s       :     0.862970  s :     0.862970
      pz      :     0.011054  p :     0.024215
      px      :     0.007714
      py      :     0.005448


                     *******************************
                     * LOEWDIN POPULATION ANALYSIS *
                     *******************************

----------------------
LOEWDIN ATOMIC CHARGES
----------------------
   0 O :    0.120680
   1 C :   -0.253825
   2 C :   -0.295953
   3 H :    0.098083
   4 H :    0.134391
   5 H :    0.113042
   6 H :    0.083582

-------------------------------
LOEWDIN REDUCED ORBITAL CHARGES
-------------------------------
  0 O s       :     3.376198  s :     3.376198
      pz      :     1.716080  p :     4.398335
      px      :     1.286018
      py      :     1.396237
      dz2     :     0.011606  d :     0.097928
      dxz     :     0.009317
      dyz     :     0.015234
      dx2y2   :     0.033831
      dxy     :     0.027939
      f0      :     0.000659  f :     0.006858
      f+1     :     0.000320
      f-1     :     0.000837
      f+2     :     0.000178
      f-2     :     0.001078
      f+3     :     0.001225
      f-3     :     0.002561
  1 C s       :     2.859435  s :     2.859435
      pz      :     1.066068  p :     2.928053
      px      :     1.005490
      py      :     0.856496
      dz2     :     0.050933  d :     0.406088
      dxz     :     0.114415
      dyz     :     0.070546
      dx2y2   :     0.091596
      dxy     :     0.078598
      f0      :     0.007897  f :     0.060250
      f+1     :     0.005237
      f-1     :     0.005078
      f+2     :     0.007268
      f-2     :     0.005974
      f+3     :     0.013060
      f-3     :     0.015735
  2 C s       :     2.809722  s :     2.809722
      pz      :     1.069118  p :     2.925486
      px      :     0.993688
      py      :     0.862680
      dz2     :     0.057780  d :     0.484858
      dxz     :     0.123149
      dyz     :     0.094067
      dx2y2   :     0.107177
      dxy     :     0.102684
      f0      :     0.010837  f :     0.075887
      f+1     :     0.006592
      f-1     :     0.006152
      f+2     :     0.005539
      f-2     :     0.010275
      f+3     :     0.016723
      f-3     :     0.019769
  3 H s       :     0.829201  s :     0.829201
      pz      :     0.035519  p :     0.072716
      px      :     0.022567
      py      :     0.014630
  4 H s       :     0.814508  s :     0.814508
      pz      :     0.028970  p :     0.051101
      px      :     0.012901
      py      :     0.009230
  5 H s       :     0.823603  s :     0.823603
      pz      :     0.033781  p :     0.063355
      px      :     0.016144
      py      :     0.013430
  6 H s       :     0.835466  s :     0.835466
      pz      :     0.038658  p :     0.080953
      px      :     0.023782
      py      :     0.018513


                      *****************************
                      * MAYER POPULATION ANALYSIS *
                      *****************************

  NA   - Mulliken gross atomic population
  ZA   - Total nuclear charge
  QA   - Mulliken gross atomic charge
  VA   - Mayer's total valence
  BVA  - Mayer's bonded valence
  FA   - Mayer's free valence

  ATOM       NA         ZA         QA         VA         BVA        FA
  0 O      8.3064     8.0000    -0.3064     1.9852     1.9852     0.0000
  1 C      6.1269     6.0000    -0.1269     3.9280     3.9280    -0.0000
  2 C      6.0428     6.0000    -0.0428     4.0028     4.0028    -0.0000
  3 H      0.8639     1.0000     0.1361     0.9574     0.9574    -0.0000
  4 H      0.8761     1.0000     0.1239     0.9684     0.9684    -0.0000
  5 H      0.8967     1.0000     0.1033     0.9621     0.9621    -0.0000
  6 H      0.8872     1.0000     0.1128     0.9493     0.9493    -0.0000

  Mayer bond orders larger than 0.100000
B(  0-O ,  1-C ) :   0.9550 B(  0-O ,  2-C ) :   1.0224 B(  1-C ,  2-C ) :   1.0493 
B(  1-C ,  3-H ) :   0.9494 B(  1-C ,  4-H ) :   0.9619 B(  2-C ,  5-H ) :   0.9605 
B(  2-C ,  6-H ) :   0.9569 

-------
TIMINGS
-------

Total SCF time: 0 days 0 hours 0 min 2 sec 

Total time                  ....       2.641 sec
Sum of individual times     ....       2.444 sec  ( 92.5%)

Fock matrix formation       ....       2.171 sec  ( 82.2%)
  Split-RI-J                ....       0.241 sec  ( 11.1% of F)
  Chain of spheres X        ....       1.490 sec  ( 68.6% of F)
  XC integration            ....       0.418 sec  ( 19.3% of F)
    Basis function eval.    ....       0.109 sec  ( 26.2% of XC)
    Density eval.           ....       0.083 sec  ( 19.9% of XC)
    XC-Functional eval.     ....       0.024 sec  (  5.6% of XC)
    XC-Potential eval.      ....       0.149 sec  ( 35.6% of XC)
Diagonalization             ....       0.017 sec  (  0.7%)
Density matrix formation    ....       0.002 sec  (  0.1%)
Population analysis         ....       0.002 sec  (  0.1%)
Initial guess               ....       0.017 sec  (  0.7%)
Orbital Transformation      ....       0.000 sec  (  0.0%)
Orbital Orthonormalization  ....       0.000 sec  (  0.0%)
DIIS solution               ....       0.014 sec  (  0.5%)
SOSCF solution              ....       0.011 sec  (  0.4%)
Grid generation             ....       0.209 sec  (  7.9%)

Maximum memory used throughout the entire SCF-calculation: 61.1 MB


-------------------------------------------------------------------------------
                          DFT DISPERSION CORRECTION                            
                                                                               
                              DFTD3 V3.1  Rev 1                                
                          USING Becke-Johnson damping                          
-------------------------------------------------------------------------------
The PBE0 functional is recognized
Active option DFTDOPT                   ...         4   

molecular C6(AA) [au] = 351.010772 


            DFT-D V3
 parameters
 s6 scaling factor         :     1.0000 
 a1 scaling factor         :     0.4145 
 s8 scaling factor         :     1.2177 
 a2 scaling factor         :     4.8593 
 ad hoc parameters k1-k3   :    16.0000     1.3333    -4.0000 

 Edisp/kcal,au: -1.507344246690  -0.002402105702 
 E6   /kcal   :  -0.988094654 
 E8   /kcal   :  -0.519249592 
 % E8         :  34.447976532 

-------------------------   ----------------
Dispersion correction           -0.002402106
-------------------------   ----------------


-------------------------   --------------------
FINAL SINGLE POINT ENERGY      -153.650402023462
-------------------------   --------------------



           ************************************************************
           *        Program running with 8 parallel MPI-processes     *
           *              working on a common directory               *
           ************************************************************
------------------------------------------------------------------------------
                         ORCA SCF GRADIENT CALCULATION
------------------------------------------------------------------------------

 ... reading COSX grid (gridx3)
Gradient of the Kohn-Sham DFT energy:
Kohn-Sham wavefunction type      ... RKS
Hartree-Fock exchange scaling    ...    0.250
Number of operators              ...    1
Number of atoms                  ...    7
Basis set dimensions             ...  117
Integral neglect threshold       ... 2.5e-11
Integral primitive cutoff        ... 2.5e-12
SHARK Integral package           ... ON

Nuc. rep. gradient       (SHARK) ... done (  0.0 sec)
HCore & Overlap gradient (SHARK) ... done (  0.0 sec)
RI-J gradient            (SHARK) ... done (  0.1 sec)
COSX-gradient                    ... done (  0.3 sec)
Exchange-correlation gradient    ... done
Dispersion correction            ... done

------------------
CARTESIAN GRADIENT
------------------

   1   O   :    0.015444333   -0.002901758   -0.030135450
   2   C   :   -0.046046468   -0.027821058    0.099572695
   3   C   :    0.093839159    0.002855825    0.085991718
   4   H   :    0.013013272    0.000039118   -0.034872468
   5   H   :   -0.019980317    0.008308116   -0.041362036
   6   H   :   -0.006975971    0.007828030    0.004971605
   7   H   :   -0.049452369    0.011799702   -0.084416690

Difference to translation invariance:
           :   -0.0001583601    0.0001079773   -0.0002506249

Difference to rotation invariance:
           :   -0.0003004783   -0.0000364565    0.0001866024

Norm of the cartesian gradient     ...    0.2087647486
RMS gradient                       ...    0.0455562030
MAX gradient                       ...    0.0995726952

-------
TIMINGS
-------

Total SCF gradient time            ...        0.720 sec

One electron gradient       ....       0.010 sec  (  1.4%)
RI-J Coulomb gradient       ....       0.079 sec  ( 11.0%)
COSX gradient               ....       0.329 sec  ( 45.7%)
XC gradient                 ....       0.163 sec  ( 22.7%)

Maximum memory used throughout the entire SCFGRAD-calculation: 35.9 MB

                            ***************************************
                            *     ORCA property calculations      *
                            ***************************************

                                    ---------------------
                                    Active property flags
                                    ---------------------
   (+) Dipole Moment


------------------------------------------------------------------------------
                       ORCA ELECTRIC PROPERTIES CALCULATION
------------------------------------------------------------------------------

Dipole Moment Calculation                       ... on
Quadrupole Moment Calculation                   ... off
Polarizability Calculation                      ... off
GBWName                                         ... ox_gs_A_orca0032.gbw
Electron density                                ... ox_gs_A_orca0032.scfp
The origin for moment calculation is the CENTER OF MASS  = (-0.014367, -0.054027  0.014595)

-------------
DIPOLE MOMENT
-------------
                                X             Y             Z
Electronic contribution:      0.14262       1.62499       0.16330
Nuclear contribution   :     -0.11642      -2.29247      -0.04833
                        -----------------------------------------
Total Dipole Moment    :      0.02620      -0.66748       0.11497
                        -----------------------------------------
Magnitude (a.u.)       :      0.67781
Magnitude (Debye)      :      1.72287



--------------------
Rotational spectrum 
--------------------
 
Rotational constants in cm-1:     0.901898     0.687782     0.461064 
Rotational constants in MHz : 27038.224166 20619.177398 13822.355283 

 Dipole components along the rotational axes: 
x,y,z [a.u.] :    -0.106621    -0.668680     0.030511 
x,y,z [Debye]:    -0.271010    -1.699651     0.077553 

 

Timings for individual modules:

Sum of individual times         ...        4.171 sec (=   0.070 min)
GTO integral calculation        ...        0.362 sec (=   0.006 min)   8.7 %
SCF iterations                  ...        2.831 sec (=   0.047 min)  67.9 %
SCF Gradient evaluation         ...        0.977 sec (=   0.016 min)  23.4 %
                             ****ORCA TERMINATED NORMALLY****
TOTAL RUN TIME: 0 days 0 hours 0 minutes 4 seconds 443 msec
