
                                 *****************
                                 * O   R   C   A *
                                 *****************

                                            #,                                       
                                            ###                                      
                                            ####                                     
                                            #####                                    
                                            ######                                   
                                           ########,                                 
                                     ,,################,,,,,                         
                               ,,#################################,,                 
                          ,,##########################################,,             
                       ,#########################################, ''#####,          
                    ,#############################################,,   '####,        
                  ,##################################################,,,,####,       
                ,###########''''           ''''###############################       
              ,#####''   ,,,,##########,,,,          '''####'''          '####       
            ,##' ,,,,###########################,,,                        '##       
           ' ,,###''''                  '''############,,,                           
         ,,##''                                '''############,,,,        ,,,,,,###''
      ,#''                                            '''#######################'''  
     '                                                          ''''####''''         
             ,#######,   #######,   ,#######,      ##                                
            ,#'     '#,  ##    ##  ,#'     '#,    #''#        ######   ,####,        
            ##       ##  ##   ,#'  ##            #'  '#       #        #'  '#        
            ##       ##  #######   ##           ,######,      #####,   #    #        
            '#,     ,#'  ##    ##  '#,     ,#' ,#      #,         ##   #,  ,#        
             '#######'   ##     ##  '#######'  #'      '#     #####' # '####'        



                  #######################################################
                  #                        -***-                        #
                  #          Department of theory and spectroscopy      #
                  #    Directorship and core code : Frank Neese         #
                  #        Max Planck Institute fuer Kohlenforschung    #
                  #                Kaiser Wilhelm Platz 1               #
                  #                 D-45470 Muelheim/Ruhr               #
                  #                      Germany                        #
                  #                                                     #
                  #                  All rights reserved                #
                  #                        -***-                        #
                  #######################################################


                         Program Version 5.0.2 -  RELEASE  -


 With contributions from (in alphabetic order):
   Daniel Aravena         : Magnetic Suceptibility
   Michael Atanasov       : Ab Initio Ligand Field Theory (pilot matlab implementation)
   Alexander A. Auer      : GIAO ZORA, VPT2 properties, NMR spectrum
   Ute Becker             : Parallelization
   Giovanni Bistoni       : ED, misc. LED, open-shell LED, HFLD
   Martin Brehm           : Molecular dynamics
   Dmytro Bykov           : SCF Hessian
   Vijay G. Chilkuri      : MRCI spin determinant printing, contributions to CSF-ICE
   Dipayan Datta          : RHF DLPNO-CCSD density
   Achintya Kumar Dutta   : EOM-CC, STEOM-CC
   Dmitry Ganyushin       : Spin-Orbit,Spin-Spin,Magnetic field MRCI
   Miquel Garcia          : C-PCM and meta-GGA Hessian, CC/C-PCM, Gaussian charge scheme
   Yang Guo               : DLPNO-NEVPT2, F12-NEVPT2, CIM, IAO-localization
   Andreas Hansen         : Spin unrestricted coupled pair/coupled cluster methods
   Benjamin Helmich-Paris : MC-RPA, TRAH-SCF, COSX integrals
   Lee Huntington         : MR-EOM, pCC
   Robert Izsak           : Overlap fitted RIJCOSX, COSX-SCS-MP3, EOM
   Marcus Kettner         : VPT2
   Christian Kollmar      : KDIIS, OOCD, Brueckner-CCSD(T), CCSD density, CASPT2, CASPT2-K
   Simone Kossmann        : Meta GGA functionals, TD-DFT gradient, OOMP2, MP2 Hessian
   Martin Krupicka        : Initial AUTO-CI
   Lucas Lang             : DCDCAS
   Marvin Lechner         : AUTO-CI (C++ implementation), FIC-MRCC
   Dagmar Lenk            : GEPOL surface, SMD
   Dimitrios Liakos       : Extrapolation schemes; Compound Job, initial MDCI parallelization
   Dimitrios Manganas     : Further ROCIS development; embedding schemes
   Dimitrios Pantazis     : SARC Basis sets
   Anastasios Papadopoulos: AUTO-CI, single reference methods and gradients
   Taras Petrenko         : DFT Hessian,TD-DFT gradient, ASA, ECA, R-Raman, ABS, FL, XAS/XES, NRVS
   Peter Pinski           : DLPNO-MP2, DLPNO-MP2 Gradient
   Christoph Reimann      : Effective Core Potentials
   Marius Retegan         : Local ZFS, SOC
   Christoph Riplinger    : Optimizer, TS searches, QM/MM, DLPNO-CCSD(T), (RO)-DLPNO pert. Triples
   Tobias Risthaus        : Range-separated hybrids, TD-DFT gradient, RPA, STAB
   Michael Roemelt        : Original ROCIS implementation
   Masaaki Saitow         : Open-shell DLPNO-CCSD energy and density
   Barbara Sandhoefer     : DKH picture change effects
   Avijit Sen             : IP-ROCIS
   Kantharuban Sivalingam : CASSCF convergence, NEVPT2, FIC-MRCI
   Bernardo de Souza      : ESD, SOC TD-DFT
   Georgi Stoychev        : AutoAux, RI-MP2 NMR, DLPNO-MP2 response
   Willem Van den Heuvel  : Paramagnetic NMR
   Boris Wezisla          : Elementary symmetry handling
   Frank Wennmohs         : Technical directorship


 We gratefully acknowledge several colleagues who have allowed us to
 interface, adapt or use parts of their codes:
   Stefan Grimme, W. Hujo, H. Kruse, P. Pracht,  : VdW corrections, initial TS optimization,
                  C. Bannwarth, S. Ehlert          DFT functionals, gCP, sTDA/sTD-DF
   Ed Valeev, F. Pavosevic, A. Kumar             : LibInt (2-el integral package), F12 methods
   Garnet Chan, S. Sharma, J. Yang, R. Olivares  : DMRG
   Ulf Ekstrom                                   : XCFun DFT Library
   Mihaly Kallay                                 : mrcc  (arbitrary order and MRCC methods)
   Jiri Pittner, Ondrej Demel                    : Mk-CCSD
   Frank Weinhold                                : gennbo (NPA and NBO analysis)
   Christopher J. Cramer and Donald G. Truhlar   : smd solvation model
   Lars Goerigk                                  : TD-DFT with DH, B97 family of functionals
   V. Asgeirsson, H. Jonsson                     : NEB implementation
   FAccTs GmbH                                   : IRC, NEB, NEB-TS, DLPNO-Multilevel, CI-OPT
                                                   MM, QMMM, 2- and 3-layer-ONIOM, Crystal-QMMM,
                                                   LR-CPCM, SF, NACMEs, symmetry and pop. for TD-DFT,
                                                   nearIR, NL-DFT gradient (VV10), updates on ESD,
                                                   ML-optimized integration grids
   S Lehtola, MJT Oliveira, MAL Marques          : LibXC Library
   Liviu Ungur et al                             : ANISO software


 Your calculation uses the libint2 library for the computation of 2-el integrals
 For citations please refer to: http://libint.valeyev.net

 Your ORCA version has been built with support for libXC version: 5.1.0
 For citations please refer to: https://tddft.org/programs/libxc/

 This ORCA versions uses:
   CBLAS   interface :  Fast vector & matrix operations
   LAPACKE interface :  Fast linear algebra routines
   SCALAPACK package :  Parallel linear algebra routines
   Shared memory     :  Shared parallel matrices
   BLAS/LAPACK       :  OpenBLAS 0.3.15  USE64BITINT DYNAMIC_ARCH NO_AFFINITY SkylakeX SINGLE_THREADED
        Core in use  :  SkylakeX
   Copyright (c) 2011-2014, The OpenBLAS Project


Your calculation utilizes the atom-pairwise dispersion correction
with the Becke-Johnson damping scheme (D3BJ)
Cite in your paper:
S.Grimme, S.Ehrlich, L.Goerigk, J Comput Chem, (2011), 32, 1456–1465 
S.Grimme, J.Antony, S.Ehrlich and H.Krieg, J.Chem.Phys., 132, (2010), 154104 
   

================================================================================

----- Orbital basis set information -----
Your calculation utilizes the basis: def2-TZVP
   F. Weigend and R. Ahlrichs, Phys. Chem. Chem. Phys. 7, 3297 (2005).

----- AuxJ basis set information -----
Your calculation utilizes the auxiliary basis: def2/J
   F. Weigend, Phys. Chem. Chem. Phys. 8, 1057 (2006).

================================================================================
                                        WARNINGS
                       Please study these warnings very carefully!
================================================================================


INFO   : the flag for use of the SHARK integral package has been found!

================================================================================
                                       INPUT FILE
================================================================================
NAME = ox_gs_F_orca0009.inp
|  1> ! engrad PBE0 D3BJ def2-TZVP  
|  2> %pal nprocs 8 end
|  3> %maxcore 3000
|  4>  
|  5> *xyz 0 1 
|  6> O   -1.2354134459004487 0.9231387743257046 0.056665377348809436
|  7> C   -0.7317168256448203 -0.46629192035501743 0.047837979642217955
|  8> C   0.8545288009747695 -0.48754558927727015 -0.02987321291350072
|  9> H   -1.3830292415930194 -0.6413494258824686 0.9061943975279776
| 10> H   -1.264028032227113 -0.7305587933582148 -0.9237682765995215
| 11> H   1.3094807810269984 -0.7075676879777617 -0.8836178659016917
| 12> H   1.2499032302625066 -0.6660177405477801 0.974053867183749
| 13> *
| 14> 
| 15>                          ****END OF INPUT****
================================================================================

                     *******************************
                     * Energy+Gradient Calculation *
                     *******************************

---------------------------------
CARTESIAN COORDINATES (ANGSTROEM)
---------------------------------
  O     -1.235413    0.923139    0.056665
  C     -0.731717   -0.466292    0.047838
  C      0.854529   -0.487546   -0.029873
  H     -1.383029   -0.641349    0.906194
  H     -1.264028   -0.730559   -0.923768
  H      1.309481   -0.707568   -0.883618
  H      1.249903   -0.666018    0.974054

----------------------------
CARTESIAN COORDINATES (A.U.)
----------------------------
  NO LB      ZA    FRAG     MASS         X           Y           Z
   0 O     8.0000    0    15.999   -2.334593    1.744479    0.107082
   1 C     6.0000    0    12.011   -1.382744   -0.881164    0.090401
   2 C     6.0000    0    12.011    1.614825   -0.921328   -0.056452
   3 H     1.0000    0     1.008   -2.613547   -1.211975    1.712459
   4 H     1.0000    0     1.008   -2.388667   -1.380556   -1.745669
   5 H     1.0000    0     1.008    2.474560   -1.337109   -1.669796
   6 H     1.0000    0     1.008    2.361975   -1.258591    1.840695

--------------------------------
INTERNAL COORDINATES (ANGSTROEM)
--------------------------------
 O      0   0   0     0.000000000000     0.00000000     0.00000000
 C      1   0   0     1.477939736095     0.00000000     0.00000000
 C      2   1   0     1.588290255546   110.68583656     0.00000000
 H      2   1   3     1.091617484990    86.71636265   130.93646206
 H      2   1   3     1.138951675001    93.66611505   241.56786145
 H      3   2   1     0.992104309322   120.20226755   256.24713929
 H      3   2   1     1.093637430900   108.56175905   100.30823919

---------------------------
INTERNAL COORDINATES (A.U.)
---------------------------
 O      0   0   0     0.000000000000     0.00000000     0.00000000
 C      1   0   0     2.792901343659     0.00000000     0.00000000
 C      2   1   0     3.001433604157   110.68583656     0.00000000
 H      2   1   3     2.062858089631    86.71636265   130.93646206
 H      2   1   3     2.152306745523    93.66611505   241.56786145
 H      3   2   1     1.874805440902   120.20226755   256.24713929
 H      3   2   1     2.066675234207   108.56175905   100.30823919

---------------------
BASIS SET INFORMATION
---------------------
There are 3 groups of distinct atoms

 Group   1 Type O   : 11s6p2d1f contracted to 5s3p2d1f pattern {62111/411/11/1}
 Group   2 Type C   : 11s6p2d1f contracted to 5s3p2d1f pattern {62111/411/11/1}
 Group   3 Type H   : 5s1p contracted to 3s1p pattern {311/1}

Atom   0O    basis set group =>   1
Atom   1C    basis set group =>   2
Atom   2C    basis set group =>   2
Atom   3H    basis set group =>   3
Atom   4H    basis set group =>   3
Atom   5H    basis set group =>   3
Atom   6H    basis set group =>   3
---------------------------------
AUXILIARY/J BASIS SET INFORMATION
---------------------------------
There are 3 groups of distinct atoms

 Group   1 Type O   : 12s5p4d2f1g contracted to 6s4p3d1f1g pattern {711111/2111/211/2/1}
 Group   2 Type C   : 12s5p4d2f1g contracted to 6s4p3d1f1g pattern {711111/2111/211/2/1}
 Group   3 Type H   : 5s2p1d contracted to 3s1p1d pattern {311/2/1}

Atom   0O    basis set group =>   1
Atom   1C    basis set group =>   2
Atom   2C    basis set group =>   2
Atom   3H    basis set group =>   3
Atom   4H    basis set group =>   3
Atom   5H    basis set group =>   3
Atom   6H    basis set group =>   3


           ************************************************************
           *        Program running with 8 parallel MPI-processes     *
           *              working on a common directory               *
           ************************************************************
------------------------------------------------------------------------------
                           ORCA GTO INTEGRAL CALCULATION
                           -- RI-GTO INTEGRALS CHOSEN --
------------------------------------------------------------------------------
------------------------------------------------------------------------------
                   ___                                                        
                  /   \      - P O W E R E D   B Y -                         
                 /     \                                                     
                 |  |  |   _    _      __       _____    __    __             
                 |  |  |  | |  | |    /  \     |  _  \  |  |  /  |          
                  \  \/   | |  | |   /    \    | | | |  |  | /  /          
                 / \  \   | |__| |  /  /\  \   | |_| |  |  |/  /          
                |  |  |   |  __  | /  /__\  \  |    /   |      \           
                |  |  |   | |  | | |   __   |  |    \   |  |\   \          
                \     /   | |  | | |  |  |  |  | |\  \  |  | \   \       
                 \___/    |_|  |_| |__|  |__|  |_| \__\ |__|  \__/        
                                                                              
                      - O R C A' S   B I G   F R I E N D -                    
                                      &                                       
                       - I N T E G R A L  F E E D E R -                       
                                                                              
 v1 FN, 2020, v2 2021                                                         
------------------------------------------------------------------------------


Reading SHARK input file ox_gs_F_orca0009.SHARKINP.tmp ... ok
----------------------
SHARK INTEGRAL PACKAGE
----------------------

Number of atoms                             ...      7
Number of basis functions                   ...    117
Number of shells                            ...     49
Maximum angular momentum                    ...      3
Integral batch strategy                     ... SHARK/LIBINT Hybrid
RI-J (if used) integral strategy            ... SPLIT-RIJ (Revised 2003 algorithm where possible)
Printlevel                                  ...      1
Contraction scheme used                     ... SEGMENTED contraction
Coulomb Range Separation                    ... NOT USED
Exchange Range Separation                   ... NOT USED
Finite Nucleus Model                        ... NOT USED
Auxiliary Coulomb fitting basis             ... AVAILABLE
   # of basis functions in Aux-J            ...    191
   # of shells in Aux-J                     ...     65
   Maximum angular momentum in Aux-J        ...      4
Auxiliary J/K fitting basis                 ... NOT available
Auxiliary Correlation fitting basis         ... NOT available
Auxiliary 'external' fitting basis          ... NOT available
Integral threshold                          ...     2.500000e-11
Primitive cut-off                           ...     2.500000e-12
Primitive pair pre-selection threshold      ...     2.500000e-12

Calculating pre-screening integrals         ... done (  0.0 sec) Dimension = 49
Organizing shell pair data                  ... done (  0.0 sec)
Shell pair information
Total number of shell pairs                 ...      1225
Shell pairs after pre-screening             ...      1211
Total number of primitive shell pairs       ...      3648
Primitive shell pairs kept                  ...      3052
          la=0 lb=0:    367 shell pairs
          la=1 lb=0:    349 shell pairs
          la=1 lb=1:     91 shell pairs
          la=2 lb=0:    161 shell pairs
          la=2 lb=1:     78 shell pairs
          la=2 lb=2:     21 shell pairs
          la=3 lb=0:     81 shell pairs
          la=3 lb=1:     39 shell pairs
          la=3 lb=2:     18 shell pairs
          la=3 lb=3:      6 shell pairs

Calculating one electron integrals          ... done (  0.0 sec)
Calculating RI/J V-Matrix + Cholesky decomp.... done (  0.0 sec)
Calculating Nuclear repulsion               ... done (  0.0 sec) ENN=     65.170711970952 Eh

SHARK setup successfully completed in   0.1 seconds

Maximum memory used throughout the entire GTOINT-calculation: 14.9 MB


           ************************************************************
           *        Program running with 8 parallel MPI-processes     *
           *              working on a common directory               *
           ************************************************************
-------------------------------------------------------------------------------
                                 ORCA SCF
-------------------------------------------------------------------------------

------------
SCF SETTINGS
------------
Hamiltonian:
 Density Functional     Method          .... DFT(GTOs)
 Exchange Functional    Exchange        .... PBE
   PBE kappa parameter   XKappa         ....  0.804000
   PBE mue parameter    XMuePBE         ....  0.219520
 Correlation Functional Correlation     .... PBE
   PBE beta parameter  CBetaPBE         ....  0.066725
 LDA part of GGA corr.  LDAOpt          .... PW91-LDA
 Gradients option       PostSCFGGA      .... off
 Hybrid DFT is turned on
   Fraction HF Exchange ScalHFX         ....  0.250000
   Scaling of DF-GGA-X  ScalDFX         ....  0.750000
   Scaling of DF-GGA-C  ScalDFC         ....  1.000000
   Scaling of DF-LDA-C  ScalLDAC        ....  1.000000
   Perturbative correction              ....  0.000000
   Density functional embedding theory  .... OFF
   NL short-range parameter             ....  6.900000
 RI-approximation to the Coulomb term is turned on
   Number of AuxJ basis functions       .... 191
   RIJ-COSX (HFX calculated with COS-X)).... on


General Settings:
 Integral files         IntName         .... ox_gs_F_orca0009
 Hartree-Fock type      HFTyp           .... RHF
 Total Charge           Charge          ....    0
 Multiplicity           Mult            ....    1
 Number of Electrons    NEL             ....   24
 Basis Dimension        Dim             ....  117
 Nuclear Repulsion      ENuc            ....     65.1707119710 Eh

Convergence Acceleration:
 DIIS                   CNVDIIS         .... on
   Start iteration      DIISMaxIt       ....    12
   Startup error        DIISStart       ....  0.200000
   # of expansion vecs  DIISMaxEq       ....     5
   Bias factor          DIISBfac        ....   1.050
   Max. coefficient     DIISMaxC        ....  10.000
 Trust-Rad. Augm. Hess. CNVTRAH         .... auto
   Auto Start mean grad. ratio tolernc. ....  1.125000
   Auto Start start iteration           ....    20
   Auto Start num. interpolation iter.  ....    10
   Max. Number of Micro iterations      ....    16
   Max. Number of Macro iterations      .... Maxiter - #DIIS iter
   Number of Davidson start vectors     ....     2
   Converg. threshold I  (grad. norm)   ....   1.000e-05
   Converg. threshold II (energy diff.) ....   1.000e-08
   Grad. Scal. Fac. for Micro threshold ....   0.100
   Minimum threshold for Micro iter.    ....   0.010
   NR start threshold (gradient norm)   ....   0.001
   Initial trust radius                 ....   0.400
   Minimum AH scaling param. (alpha)    ....   1.000
   Maximum AH scaling param. (alpha)    .... 1000.000
   Orbital update algorithm             .... Taylor
   White noise on init. David. guess    .... on
   Maximum white noise                  ....   0.010
   Quad. conv. algorithm                .... NR
 SOSCF                  CNVSOSCF        .... on
   Start iteration      SOSCFMaxIt      ....   150
   Startup grad/error   SOSCFStart      ....  0.003300
 Level Shifting         CNVShift        .... on
   Level shift para.    LevelShift      ....    0.2500
   Turn off err/grad.   ShiftErr        ....    0.0010
 Zerner damping         CNVZerner       .... off
 Static damping         CNVDamp         .... on
   Fraction old density DampFac         ....    0.7000
   Max. Damping (<1)    DampMax         ....    0.9800
   Min. Damping (>=0)   DampMin         ....    0.0000
   Turn off err/grad.   DampErr         ....    0.1000
 Fernandez-Rico         CNVRico         .... off

SCF Procedure:
 Maximum # iterations   MaxIter         ....   125
 SCF integral mode      SCFMode         .... Direct
   Integral package                     .... SHARK and LIBINT hybrid scheme
 Reset frequency        DirectResetFreq ....    20
 Integral Threshold     Thresh          ....  2.500e-11 Eh
 Primitive CutOff       TCut            ....  2.500e-12 Eh

Convergence Tolerance:
 Convergence Check Mode ConvCheckMode   .... Total+1el-Energy
 Convergence forced     ConvForced      .... 0
 Energy Change          TolE            ....  1.000e-08 Eh
 1-El. energy change                    ....  1.000e-05 Eh
 Orbital Gradient       TolG            ....  1.000e-05
 Orbital Rotation angle TolX            ....  1.000e-05
 DIIS Error             TolErr          ....  5.000e-07


Diagonalization of the overlap matrix:
Smallest eigenvalue                        ... 1.009e-03
Time for diagonalization                   ...    0.001 sec
Threshold for overlap eigenvalues          ... 1.000e-08
Number of eigenvalues below threshold      ... 0
Time for construction of square roots      ...    0.001 sec
Total time needed                          ...    0.003 sec

Time for model grid setup =    0.023 sec

------------------------------
INITIAL GUESS: MODEL POTENTIAL
------------------------------
Loading Hartree-Fock densities                     ... done
Calculating cut-offs                               ... done
Initializing the effective Hamiltonian             ... done
Setting up the integral package (SHARK)            ... done
Starting the Coulomb interaction                   ... done (   0.0 sec)
Reading the grid                                   ... done
Mapping shells                                     ... done
Starting the XC term evaluation                    ... done (   0.0 sec)
  promolecular density results
     # of electrons  =     23.997851199
     EX              =    -19.416589945
     EC              =     -0.758042597
     EX+EC           =    -20.174632543
Transforming the Hamiltonian                       ... done (   0.0 sec)
Diagonalizing the Hamiltonian                      ... done (   0.0 sec)
Back transforming the eigenvectors                 ... done (   0.0 sec)
Now organizing SCF variables                       ... done
                      ------------------
                      INITIAL GUESS DONE (   0.0 sec)
                      ------------------
-------------------
DFT GRID GENERATION
-------------------

General Integration Accuracy     IntAcc      ... 4.388
Radial Grid Type                 RadialGrid  ... OptM3 with GC (2021)
Angular Grid (max. ang.)         AngularGrid ... 4 (Lebedev-302)
Angular grid pruning method      GridPruning ... 4 (adaptive)
Weight generation scheme         WeightScheme... Becke
Basis function cutoff            BFCut       ... 1.0000e-11
Integration weight cutoff        WCut        ... 1.0000e-14
Angular grids for H and He will be reduced by one unit
Partially contracted basis set               ... off
Rotationally invariant grid construction     ... off

Total number of grid points                  ...    31369
Total number of batches                      ...      493
Average number of points per batch           ...       63
Average number of grid points per atom       ...     4481
Time for grid setup =    0.111 sec

--------------------
COSX GRID GENERATION
--------------------

GRIDX 1
-------
General Integration Accuracy     IntAcc      ... 3.816
Radial Grid Type                 RadialGrid  ... OptM3 with GC (2021)
Angular Grid (max. ang.)         AngularGrid ... 1 (Lebedev-50)
Angular grid pruning method      GridPruning ... 4 (adaptive)
Weight generation scheme         WeightScheme... Becke
Basis function cutoff            BFCut       ... 1.0000e-11
Integration weight cutoff        WCut        ... 1.0000e-14
Angular grids for H and He will be reduced by one unit
Partially contracted basis set               ... on
Rotationally invariant grid construction     ... off

Total number of grid points                  ...     4043
Total number of batches                      ...       67
Average number of points per batch           ...       60
Average number of grid points per atom       ...      578
UseSFitting                                  ... on

GRIDX 2
-------
General Integration Accuracy     IntAcc      ... 4.020
Radial Grid Type                 RadialGrid  ... OptM3 with GC (2021)
Angular Grid (max. ang.)         AngularGrid ... 2 (Lebedev-110)
Angular grid pruning method      GridPruning ... 4 (adaptive)
Weight generation scheme         WeightScheme... Becke
Basis function cutoff            BFCut       ... 1.0000e-11
Integration weight cutoff        WCut        ... 1.0000e-14
Angular grids for H and He will be reduced by one unit
Partially contracted basis set               ... on
Rotationally invariant grid construction     ... off

Total number of grid points                  ...     8754
Total number of batches                      ...      140
Average number of points per batch           ...       62
Average number of grid points per atom       ...     1251
UseSFitting                                  ... on

GRIDX 3
-------
General Integration Accuracy     IntAcc      ... 4.338
Radial Grid Type                 RadialGrid  ... OptM3 with GC (2021)
Angular Grid (max. ang.)         AngularGrid ... 3 (Lebedev-194)
Angular grid pruning method      GridPruning ... 4 (adaptive)
Weight generation scheme         WeightScheme... Becke
Basis function cutoff            BFCut       ... 1.0000e-11
Integration weight cutoff        WCut        ... 1.0000e-14
Angular grids for H and He will be reduced by one unit
Partially contracted basis set               ... on
Rotationally invariant grid construction     ... off

Total number of grid points                  ...    19302
Total number of batches                      ...      305
Average number of points per batch           ...       63
Average number of grid points per atom       ...     2757
UseSFitting                                  ... on

Time for X-Grid setup             =    0.073 sec

--------------
SCF ITERATIONS
--------------
ITER       Energy         Delta-E        Max-DP      RMS-DP      [F,P]     Damp
               ***  Starting incremental Fock matrix formation  ***
  0   -153.2043271357   0.000000000000 0.15235470  0.00467558  0.4041478 0.7000
  1   -153.3466844266  -0.142357290835 0.09728115  0.00237346  0.0968971 0.7000
                               ***Turning on DIIS***
  2   -153.3003418232   0.046342603404 0.04706194  0.00173418  0.1510521 0.7000
  3   -153.3706499095  -0.070308086345 0.08200845  0.00382472  0.0363117 0.0000
  4   -153.4128924957  -0.042242586166 0.00727795  0.00024781  0.1767511 0.7000
  5   -153.4183860925  -0.005493596846 0.00828827  0.00029534  0.1651930 0.7000
  6   -153.4226587113  -0.004272618761 0.00761982  0.00028645  0.1542979 0.7000
  7   -153.4255538849  -0.002895173629 0.00664088  0.00025967  0.1454059 0.7000
  8   -153.4277772607  -0.002223375801 0.02912546  0.00107617  0.1377225 0.7000
  9   -153.4569866769  -0.029209416204 0.05250906  0.00183604  0.0407984 0.0000
 10   -153.4497207304   0.007265946492 0.00312814  0.00014947  0.1180868 0.7000
 11   -153.4540455769  -0.004324846508 0.00352493  0.00017112  0.1061535 0.7000
 12   -153.4584708974  -0.004425320460 0.01103158  0.00055922  0.0924772 0.0000
 13   -153.4696603337  -0.011189436279 0.00634970  0.00023523  0.0475612 0.0000
 14   -153.4722598906  -0.002599556969 0.00732583  0.00024768  0.0284591 0.0000
 15   -153.4735535355  -0.001293644867 0.00510002  0.00015038  0.0105681 0.0000
 16   -153.4738413281  -0.000287792556 0.00365355  0.00011778  0.0041437 0.0000
                      *** Initiating the SOSCF procedure ***
                           *** Shutting down DIIS ***
                      *** Re-Reading the Fockian *** 
                      *** Removing any level shift *** 
ITER      Energy       Delta-E        Grad      Rot      Max-DP    RMS-DP
 17   -153.47399912  -0.0001577934  0.002662  0.002662  0.003288  0.000111
               *** Restarting incremental Fock matrix formation ***
 18   -153.47415324  -0.0001541235  0.002517  0.029075  0.010252  0.000375
 19   -153.47454301  -0.0003897669  0.002413  0.205802  0.079497  0.002262
 20   -153.46878035   0.0057626592  0.026037  0.120848  0.049868  0.001254
 21   -153.47495906  -0.0061787045  0.005267  0.013339  0.007166  0.000240
 22   -153.47517618  -0.0002171227  0.003095  0.037982  0.014057  0.000503
 23   -153.47543164  -0.0002554604  0.001097  0.021992  0.008090  0.000311
 24   -153.47547657  -0.0000449333  0.000605  0.016477  0.005907  0.000225
 25   -153.47549628  -0.0000197032  0.000327  0.005098  0.001416  0.000059
 26   -153.47549960  -0.0000033223  0.000096  0.002879  0.000910  0.000035
 27   -153.47550022  -0.0000006210  0.000037  0.000637  0.000164  0.000008
 28   -153.47550030  -0.0000000782  0.000014  0.000092  0.000030  0.000001
 29   -153.47550031  -0.0000000073  0.000003  0.000051  0.000016  0.000001
                 **** Energy Check signals convergence ****
              ***Rediagonalizing the Fockian in SOSCF/NRSCF***

               *****************************************************
               *                     SUCCESS                       *
               *           SCF CONVERGED AFTER  30 CYCLES          *
               *****************************************************

Old exchange energy                            =     -4.933997599 Eh
New exchange energy                            =     -4.934005997 Eh
Exchange energy change after final integration =     -0.000008398 Eh
Total energy after final integration           =   -153.475508703 Eh
Final COS-X integration done in                =     0.252 sec

----------------
TOTAL SCF ENERGY
----------------

Total Energy       :         -153.47550870 Eh           -4176.28091 eV

Components:
Nuclear Repulsion  :           65.17071197 Eh            1773.38523 eV
Electronic Energy  :         -218.64622067 Eh           -5949.66614 eV
One Electron Energy:         -337.18720324 Eh           -9175.33026 eV
Two Electron Energy:          118.54098256 Eh            3225.66413 eV
Max COSX asymmetry :            0.00000372 Eh               0.00010 eV

Virial components:
Potential Energy   :         -306.11367467 Eh           -8329.77657 eV
Kinetic Energy     :          152.63816597 Eh            4153.49566 eV
Virial Ratio       :            2.00548580


DFT components:
N(Alpha)           :       11.999999694189 electrons
N(Beta)            :       11.999999694189 electrons
N(Total)           :       23.999999388378 electrons
E(X)               :      -14.840876401729 Eh       
E(C)               :       -0.764372660873 Eh       
E(XC)              :      -15.605249062603 Eh       
DFET-embed. en.    :        0.000000000000 Eh       

---------------
SCF CONVERGENCE
---------------

  Last Energy change         ...   -6.9423e-10  Tolerance :   1.0000e-08
  Last MAX-Density change    ...    8.8818e-16  Tolerance :   1.0000e-07
  Last RMS-Density change    ...    1.7839e-17  Tolerance :   5.0000e-09
  Last Orbital Gradient      ...    6.2691e-07  Tolerance :   1.0000e-05
  Last Orbital Rotation      ...    4.5593e-06  Tolerance :   1.0000e-05

             **** THE GBW FILE WAS UPDATED (ox_gs_F_orca0009.gbw) ****
             **** DENSITY ox_gs_F_orca0009.scfp WAS UPDATED ****
             **** ENERGY FILE WAS UPDATED (ox_gs_F_orca0009.en.tmp) ****
             **** THE GBW FILE WAS UPDATED (ox_gs_F_orca0009.gbw) ****
             **** DENSITY ox_gs_F_orca0009.scfp WAS UPDATED ****
----------------
ORBITAL ENERGIES
----------------

  NO   OCC          E(Eh)            E(eV) 
   0   2.0000     -19.190306      -522.1948 
   1   2.0000     -10.328739      -281.0593 
   2   2.0000     -10.286631      -279.9135 
   3   2.0000      -0.964700       -26.2508 
   4   2.0000      -0.775843       -21.1118 
   5   2.0000      -0.627795       -17.0832 
   6   2.0000      -0.530167       -14.4266 
   7   2.0000      -0.470354       -12.7990 
   8   2.0000      -0.427224       -11.6254 
   9   2.0000      -0.379339       -10.3223 
  10   2.0000      -0.256365        -6.9760 
  11   2.0000      -0.241182        -6.5629 
  12   0.0000      -0.175315        -4.7706 
  13   0.0000       0.050507         1.3744 
  14   0.0000       0.076280         2.0757 
  15   0.0000       0.087828         2.3899 
  16   0.0000       0.123116         3.3501 
  17   0.0000       0.139067         3.7842 
  18   0.0000       0.161411         4.3922 
  19   0.0000       0.201631         5.4867 
  20   0.0000       0.227799         6.1987 
  21   0.0000       0.234737         6.3875 
  22   0.0000       0.252348         6.8667 
  23   0.0000       0.319725         8.7001 
  24   0.0000       0.322182         8.7670 
  25   0.0000       0.373624        10.1668 
  26   0.0000       0.396709        10.7950 
  27   0.0000       0.429004        11.6738 
  28   0.0000       0.433592        11.7986 
  29   0.0000       0.458433        12.4746 
  30   0.0000       0.510443        13.8899 
  31   0.0000       0.531450        14.4615 
  32   0.0000       0.549458        14.9515 
  33   0.0000       0.581809        15.8318 
  34   0.0000       0.658465        17.9177 
  35   0.0000       0.708340        19.2749 
  36   0.0000       0.772153        21.0113 
  37   0.0000       0.826858        22.4999 
  38   0.0000       0.883229        24.0339 
  39   0.0000       0.901238        24.5239 
  40   0.0000       0.907574        24.6964 
  41   0.0000       1.000964        27.2376 
  42   0.0000       1.063421        28.9372 
  43   0.0000       1.072800        29.1924 
  44   0.0000       1.161565        31.6078 
  45   0.0000       1.325009        36.0553 
  46   0.0000       1.415925        38.5293 
  47   0.0000       1.429412        38.8963 
  48   0.0000       1.495266        40.6883 
  49   0.0000       1.533953        41.7410 
  50   0.0000       1.558140        42.3991 
  51   0.0000       1.578781        42.9608 
  52   0.0000       1.599609        43.5276 
  53   0.0000       1.652938        44.9787 
  54   0.0000       1.726759        46.9875 
  55   0.0000       1.744564        47.4720 
  56   0.0000       1.768041        48.1108 
  57   0.0000       1.840705        50.0881 
  58   0.0000       1.882680        51.2303 
  59   0.0000       1.898221        51.6532 
  60   0.0000       1.969429        53.5909 
  61   0.0000       2.022076        55.0235 
  62   0.0000       2.097588        57.0783 
  63   0.0000       2.206126        60.0317 
  64   0.0000       2.248253        61.1781 
  65   0.0000       2.314153        62.9713 
  66   0.0000       2.344999        63.8107 
  67   0.0000       2.465679        67.0945 
  68   0.0000       2.480469        67.4970 
  69   0.0000       2.491075        67.7856 
  70   0.0000       2.524614        68.6982 
  71   0.0000       2.567074        69.8536 
  72   0.0000       2.602316        70.8126 
  73   0.0000       2.658256        72.3348 
  74   0.0000       2.741308        74.5948 
  75   0.0000       2.751682        74.8771 
  76   0.0000       2.841631        77.3247 
  77   0.0000       2.947266        80.1992 
  78   0.0000       2.995301        81.5063 
  79   0.0000       3.005196        81.7755 
  80   0.0000       3.053418        83.0877 
  81   0.0000       3.072387        83.6039 
  82   0.0000       3.075624        83.6920 
  83   0.0000       3.129039        85.1455 
  84   0.0000       3.185611        86.6849 
  85   0.0000       3.268415        88.9381 
  86   0.0000       3.295332        89.6705 
  87   0.0000       3.355943        91.3199 
  88   0.0000       3.369574        91.6908 
  89   0.0000       3.376355        91.8753 
  90   0.0000       3.422533        93.1319 
  91   0.0000       3.575258        97.2877 
  92   0.0000       3.656428        99.4965 
  93   0.0000       3.762546       102.3841 
  94   0.0000       3.877520       105.5127 
  95   0.0000       3.950169       107.4896 
  96   0.0000       4.097301       111.4932 
  97   0.0000       4.184689       113.8712 
  98   0.0000       4.363499       118.7368 
  99   0.0000       4.501086       122.4808 
 100   0.0000       4.576667       124.5374 
 101   0.0000       4.699005       127.8664 
 102   0.0000       5.196679       141.4088 
 103   0.0000       5.210054       141.7728 
 104   0.0000       5.348308       145.5349 
 105   0.0000       5.380205       146.4028 
 106   0.0000       5.670365       154.2985 
 107   0.0000       5.679992       154.5604 
 108   0.0000       5.851148       159.2178 
 109   0.0000       6.348299       172.7460 
 110   0.0000       6.363329       173.1550 
 111   0.0000       6.747990       183.6221 
 112   0.0000       6.766962       184.1384 
 113   0.0000       6.982948       190.0157 
 114   0.0000      22.043445       599.8326 
 115   0.0000      22.183023       603.6307 
 116   0.0000      43.716149      1189.5769 

                    ********************************
                    * MULLIKEN POPULATION ANALYSIS *
                    ********************************

-----------------------
MULLIKEN ATOMIC CHARGES
-----------------------
   0 O :   -0.387985
   1 C :   -0.128728
   2 C :   -0.124518
   3 H :    0.151452
   4 H :    0.136499
   5 H :    0.182542
   6 H :    0.170738
Sum of atomic charges:    0.0000000

--------------------------------
MULLIKEN REDUCED ORBITAL CHARGES
--------------------------------
  0 O s       :     3.910806  s :     3.910806
      pz      :     1.799367  p :     4.455864
      px      :     1.257696
      py      :     1.398800
      dz2     :     0.002760  d :     0.020312
      dxz     :     0.000333
      dyz     :     0.004735
      dx2y2   :     0.006600
      dxy     :     0.005884
      f0      :     0.000112  f :     0.001004
      f+1     :     0.000069
      f-1     :     0.000195
      f+2     :     0.000110
      f-2     :     0.000052
      f+3     :     0.000278
      f-3     :     0.000189
  1 C s       :     3.254236  s :     3.254236
      pz      :     1.077610  p :     2.722551
      px      :     0.871216
      py      :     0.773725
      dz2     :     0.013016  d :     0.143560
      dxz     :     0.018604
      dyz     :     0.037203
      dx2y2   :     0.023088
      dxy     :     0.051649
      f0      :     0.001353  f :     0.008380
      f+1     :     0.001255
      f-1     :     0.000518
      f+2     :     0.001693
      f-2     :     0.000673
      f+3     :     0.002245
      f-3     :     0.000642
  2 C s       :     3.305031  s :     3.305031
      pz      :     1.058868  p :     2.776331
      px      :     1.032638
      py      :     0.684824
      dz2     :     0.007451  d :     0.039612
      dxz     :     0.017643
      dyz     :     0.001856
      dx2y2   :     0.004931
      dxy     :     0.007731
      f0      :     0.000663  f :     0.003544
      f+1     :     0.001021
      f-1     :     0.000133
      f+2     :     0.000424
      f-2     :     0.000097
      f+3     :     0.000572
      f-3     :     0.000634
  3 H s       :     0.824653  s :     0.824653
      pz      :     0.009422  p :     0.023896
      px      :     0.007935
      py      :     0.006538
  4 H s       :     0.842981  s :     0.842981
      pz      :     0.009877  p :     0.020520
      px      :     0.005978
      py      :     0.004665
  5 H s       :     0.791637  s :     0.791637
      pz      :     0.012041  p :     0.025821
      px      :     0.008028
      py      :     0.005753
  6 H s       :     0.806171  s :     0.806171
      pz      :     0.013026  p :     0.023092
      px      :     0.005950
      py      :     0.004116


                     *******************************
                     * LOEWDIN POPULATION ANALYSIS *
                     *******************************

----------------------
LOEWDIN ATOMIC CHARGES
----------------------
   0 O :   -0.126652
   1 C :   -0.406581
   2 C :    0.038030
   3 H :    0.127672
   4 H :    0.136034
   5 H :    0.095142
   6 H :    0.136356

-------------------------------
LOEWDIN REDUCED ORBITAL CHARGES
-------------------------------
  0 O s       :     3.618547  s :     3.618547
      pz      :     1.746690  p :     4.457686
      px      :     1.226947
      py      :     1.484050
      dz2     :     0.005942  d :     0.047603
      dxz     :     0.000771
      dyz     :     0.012885
      dx2y2   :     0.015629
      dxy     :     0.012376
      f0      :     0.000334  f :     0.002816
      f+1     :     0.000105
      f-1     :     0.000423
      f+2     :     0.000403
      f-2     :     0.000165
      f+3     :     0.000701
      f-3     :     0.000685
  1 C s       :     2.877719  s :     2.877719
      pz      :     1.076036  p :     2.959085
      px      :     0.996996
      py      :     0.886053
      dz2     :     0.067470  d :     0.516288
      dxz     :     0.079771
      dyz     :     0.096616
      dx2y2   :     0.110709
      dxy     :     0.161723
      f0      :     0.007339  f :     0.053489
      f+1     :     0.006001
      f-1     :     0.005351
      f+2     :     0.008832
      f-2     :     0.004915
      f+3     :     0.016312
      f-3     :     0.004740
  2 C s       :     2.941079  s :     2.941079
      pz      :     1.096448  p :     2.837984
      px      :     1.113393
      py      :     0.628142
      dz2     :     0.033200  d :     0.166240
      dxz     :     0.073059
      dyz     :     0.006047
      dx2y2   :     0.029977
      dxy     :     0.023957
      f0      :     0.003461  f :     0.016667
      f+1     :     0.002966
      f-1     :     0.000857
      f+2     :     0.002479
      f-2     :     0.000933
      f+3     :     0.003044
      f-3     :     0.002927
  3 H s       :     0.804422  s :     0.804422
      pz      :     0.028690  p :     0.067905
      px      :     0.021882
      py      :     0.017334
  4 H s       :     0.807601  s :     0.807601
      pz      :     0.028669  p :     0.056365
      px      :     0.015392
      py      :     0.012303
  5 H s       :     0.818933  s :     0.818933
      pz      :     0.041837  p :     0.085925
      px      :     0.026297
      py      :     0.017791
  6 H s       :     0.796590  s :     0.796590
      pz      :     0.038700  p :     0.067054
      px      :     0.017115
      py      :     0.011239


                      *****************************
                      * MAYER POPULATION ANALYSIS *
                      *****************************

  NA   - Mulliken gross atomic population
  ZA   - Total nuclear charge
  QA   - Mulliken gross atomic charge
  VA   - Mayer's total valence
  BVA  - Mayer's bonded valence
  FA   - Mayer's free valence

  ATOM       NA         ZA         QA         VA         BVA        FA
  0 O      8.3880     8.0000    -0.3880     1.7708     1.7708     0.0000
  1 C      6.1287     6.0000    -0.1287     4.0211     4.0211     0.0000
  2 C      6.1245     6.0000    -0.1245     3.7046     3.7046     0.0000
  3 H      0.8485     1.0000     0.1515     0.9793     0.9793     0.0000
  4 H      0.8635     1.0000     0.1365     0.9630     0.9630    -0.0000
  5 H      0.8175     1.0000     0.1825     0.9568     0.9568     0.0000
  6 H      0.8293     1.0000     0.1707     0.9642     0.9642    -0.0000

  Mayer bond orders larger than 0.100000
B(  0-O ,  1-C ) :   1.0262 B(  0-O ,  2-C ) :   0.7549 B(  1-C ,  2-C ) :   1.0459 
B(  1-C ,  3-H ) :   0.9842 B(  1-C ,  4-H ) :   0.9625 B(  2-C ,  5-H ) :   0.9404 
B(  2-C ,  6-H ) :   0.9520 

-------
TIMINGS
-------

Total SCF time: 0 days 0 hours 0 min 5 sec 

Total time                  ....       5.312 sec
Sum of individual times     ....       4.949 sec  ( 93.2%)

Fock matrix formation       ....       4.612 sec  ( 86.8%)
  Split-RI-J                ....       0.439 sec  (  9.5% of F)
  Chain of spheres X        ....       3.097 sec  ( 67.2% of F)
  XC integration            ....       0.964 sec  ( 20.9% of F)
    Basis function eval.    ....       0.271 sec  ( 28.1% of XC)
    Density eval.           ....       0.199 sec  ( 20.7% of XC)
    XC-Functional eval.     ....       0.057 sec  (  6.0% of XC)
    XC-Potential eval.      ....       0.327 sec  ( 33.9% of XC)
Diagonalization             ....       0.040 sec  (  0.8%)
Density matrix formation    ....       0.003 sec  (  0.1%)
Population analysis         ....       0.004 sec  (  0.1%)
Initial guess               ....       0.017 sec  (  0.3%)
Orbital Transformation      ....       0.000 sec  (  0.0%)
Orbital Orthonormalization  ....       0.000 sec  (  0.0%)
DIIS solution               ....       0.039 sec  (  0.7%)
SOSCF solution              ....       0.028 sec  (  0.5%)
Grid generation             ....       0.206 sec  (  3.9%)

Maximum memory used throughout the entire SCF-calculation: 61.0 MB


-------------------------------------------------------------------------------
                          DFT DISPERSION CORRECTION                            
                                                                               
                              DFTD3 V3.1  Rev 1                                
                          USING Becke-Johnson damping                          
-------------------------------------------------------------------------------
The PBE0 functional is recognized
Active option DFTDOPT                   ...         4   

molecular C6(AA) [au] = 395.460527 


            DFT-D V3
 parameters
 s6 scaling factor         :     1.0000 
 a1 scaling factor         :     0.4145 
 s8 scaling factor         :     1.2177 
 a2 scaling factor         :     4.8593 
 ad hoc parameters k1-k3   :    16.0000     1.3333    -4.0000 

 Edisp/kcal,au: -1.619386985227  -0.002580657152 
 E6   /kcal   :  -1.055321473 
 E8   /kcal   :  -0.564065512 
 % E8         :  34.832039364 

-------------------------   ----------------
Dispersion correction           -0.002580657
-------------------------   ----------------


-------------------------   --------------------
FINAL SINGLE POINT ENERGY      -153.478089360644
-------------------------   --------------------



           ************************************************************
           *        Program running with 8 parallel MPI-processes     *
           *              working on a common directory               *
           ************************************************************
------------------------------------------------------------------------------
                         ORCA SCF GRADIENT CALCULATION
------------------------------------------------------------------------------

 ... reading COSX grid (gridx3)
Gradient of the Kohn-Sham DFT energy:
Kohn-Sham wavefunction type      ... RKS
Hartree-Fock exchange scaling    ...    0.250
Number of operators              ...    1
Number of atoms                  ...    7
Basis set dimensions             ...  117
Integral neglect threshold       ... 2.5e-11
Integral primitive cutoff        ... 2.5e-12
SHARK Integral package           ... ON

Nuc. rep. gradient       (SHARK) ... done (  0.0 sec)
HCore & Overlap gradient (SHARK) ... done (  0.0 sec)
RI-J gradient            (SHARK) ... done (  0.1 sec)
COSX-gradient                    ... done (  0.3 sec)
Exchange-correlation gradient    ... done
Dispersion correction            ... done

------------------
CARTESIAN GRADIENT
------------------

   1   O   :   -0.066590869   -0.008714988    0.012623669
   2   C   :    0.031898716   -0.039721462    0.038170684
   3   C   :    0.134692563   -0.002833952   -0.103478742
   4   H   :   -0.024054627    0.044499036   -0.009571636
   5   H   :   -0.025171250    0.022982562   -0.021678042
   6   H   :   -0.038753396   -0.003294424    0.072956879
   7   H   :   -0.011967156   -0.012593755    0.010876908

Difference to translation invariance:
           :    0.0000539821    0.0003230170   -0.0001002795

Difference to rotation invariance:
           :   -0.0000261410   -0.0000933983   -0.0008149389

Norm of the cartesian gradient     ...    0.2216248728
RMS gradient                       ...    0.0483625122
MAX gradient                       ...    0.1346925634

-------
TIMINGS
-------

Total SCF gradient time            ...        0.667 sec

One electron gradient       ....       0.009 sec  (  1.4%)
RI-J Coulomb gradient       ....       0.072 sec  ( 10.8%)
COSX gradient               ....       0.300 sec  ( 44.9%)
XC gradient                 ....       0.151 sec  ( 22.6%)

Maximum memory used throughout the entire SCFGRAD-calculation: 35.8 MB

                            ***************************************
                            *     ORCA property calculations      *
                            ***************************************

                                    ---------------------
                                    Active property flags
                                    ---------------------
   (+) Dipole Moment


------------------------------------------------------------------------------
                       ORCA ELECTRIC PROPERTIES CALCULATION
------------------------------------------------------------------------------

Dipole Moment Calculation                       ... on
Quadrupole Moment Calculation                   ... off
Polarizability Calculation                      ... off
GBWName                                         ... ox_gs_F_orca0009.gbw
Electron density                                ... ox_gs_F_orca0009.scfp
The origin for moment calculation is the CENTER OF MASS  = (-0.788383,  0.023391  0.051296)

-------------
DIPOLE MOMENT
-------------
                                X             Y             Z
Electronic contribution:     -0.47395       1.38256       0.04686
Nuclear contribution   :      1.47125      -2.60874      -0.03307
                        -----------------------------------------
Total Dipole Moment    :      0.99730      -1.22618       0.01379
                        -----------------------------------------
Magnitude (a.u.)       :      1.58061
Magnitude (Debye)      :      4.01760



--------------------
Rotational spectrum 
--------------------
 
Rotational constants in cm-1:     1.352266     0.310744     0.281681 
Rotational constants in MHz : 40539.923049  9315.874504  8444.594362 

 Dipole components along the rotational axes: 
x,y,z [a.u.] :     1.497559    -0.502206    -0.058671 
x,y,z [Debye]:     3.806491    -1.276506    -0.149130 

 

Timings for individual modules:

Sum of individual times         ...        6.676 sec (=   0.111 min)
GTO integral calculation        ...        0.309 sec (=   0.005 min)   4.6 %
SCF iterations                  ...        5.493 sec (=   0.092 min)  82.3 %
SCF Gradient evaluation         ...        0.874 sec (=   0.015 min)  13.1 %
                             ****ORCA TERMINATED NORMALLY****
TOTAL RUN TIME: 0 days 0 hours 0 minutes 6 seconds 927 msec
