
                                 *****************
                                 * O   R   C   A *
                                 *****************

                                            #,                                       
                                            ###                                      
                                            ####                                     
                                            #####                                    
                                            ######                                   
                                           ########,                                 
                                     ,,################,,,,,                         
                               ,,#################################,,                 
                          ,,##########################################,,             
                       ,#########################################, ''#####,          
                    ,#############################################,,   '####,        
                  ,##################################################,,,,####,       
                ,###########''''           ''''###############################       
              ,#####''   ,,,,##########,,,,          '''####'''          '####       
            ,##' ,,,,###########################,,,                        '##       
           ' ,,###''''                  '''############,,,                           
         ,,##''                                '''############,,,,        ,,,,,,###''
      ,#''                                            '''#######################'''  
     '                                                          ''''####''''         
             ,#######,   #######,   ,#######,      ##                                
            ,#'     '#,  ##    ##  ,#'     '#,    #''#        ######   ,####,        
            ##       ##  ##   ,#'  ##            #'  '#       #        #'  '#        
            ##       ##  #######   ##           ,######,      #####,   #    #        
            '#,     ,#'  ##    ##  '#,     ,#' ,#      #,         ##   #,  ,#        
             '#######'   ##     ##  '#######'  #'      '#     #####' # '####'        



                  #######################################################
                  #                        -***-                        #
                  #          Department of theory and spectroscopy      #
                  #    Directorship and core code : Frank Neese         #
                  #        Max Planck Institute fuer Kohlenforschung    #
                  #                Kaiser Wilhelm Platz 1               #
                  #                 D-45470 Muelheim/Ruhr               #
                  #                      Germany                        #
                  #                                                     #
                  #                  All rights reserved                #
                  #                        -***-                        #
                  #######################################################


                         Program Version 5.0.2 -  RELEASE  -


 With contributions from (in alphabetic order):
   Daniel Aravena         : Magnetic Suceptibility
   Michael Atanasov       : Ab Initio Ligand Field Theory (pilot matlab implementation)
   Alexander A. Auer      : GIAO ZORA, VPT2 properties, NMR spectrum
   Ute Becker             : Parallelization
   Giovanni Bistoni       : ED, misc. LED, open-shell LED, HFLD
   Martin Brehm           : Molecular dynamics
   Dmytro Bykov           : SCF Hessian
   Vijay G. Chilkuri      : MRCI spin determinant printing, contributions to CSF-ICE
   Dipayan Datta          : RHF DLPNO-CCSD density
   Achintya Kumar Dutta   : EOM-CC, STEOM-CC
   Dmitry Ganyushin       : Spin-Orbit,Spin-Spin,Magnetic field MRCI
   Miquel Garcia          : C-PCM and meta-GGA Hessian, CC/C-PCM, Gaussian charge scheme
   Yang Guo               : DLPNO-NEVPT2, F12-NEVPT2, CIM, IAO-localization
   Andreas Hansen         : Spin unrestricted coupled pair/coupled cluster methods
   Benjamin Helmich-Paris : MC-RPA, TRAH-SCF, COSX integrals
   Lee Huntington         : MR-EOM, pCC
   Robert Izsak           : Overlap fitted RIJCOSX, COSX-SCS-MP3, EOM
   Marcus Kettner         : VPT2
   Christian Kollmar      : KDIIS, OOCD, Brueckner-CCSD(T), CCSD density, CASPT2, CASPT2-K
   Simone Kossmann        : Meta GGA functionals, TD-DFT gradient, OOMP2, MP2 Hessian
   Martin Krupicka        : Initial AUTO-CI
   Lucas Lang             : DCDCAS
   Marvin Lechner         : AUTO-CI (C++ implementation), FIC-MRCC
   Dagmar Lenk            : GEPOL surface, SMD
   Dimitrios Liakos       : Extrapolation schemes; Compound Job, initial MDCI parallelization
   Dimitrios Manganas     : Further ROCIS development; embedding schemes
   Dimitrios Pantazis     : SARC Basis sets
   Anastasios Papadopoulos: AUTO-CI, single reference methods and gradients
   Taras Petrenko         : DFT Hessian,TD-DFT gradient, ASA, ECA, R-Raman, ABS, FL, XAS/XES, NRVS
   Peter Pinski           : DLPNO-MP2, DLPNO-MP2 Gradient
   Christoph Reimann      : Effective Core Potentials
   Marius Retegan         : Local ZFS, SOC
   Christoph Riplinger    : Optimizer, TS searches, QM/MM, DLPNO-CCSD(T), (RO)-DLPNO pert. Triples
   Tobias Risthaus        : Range-separated hybrids, TD-DFT gradient, RPA, STAB
   Michael Roemelt        : Original ROCIS implementation
   Masaaki Saitow         : Open-shell DLPNO-CCSD energy and density
   Barbara Sandhoefer     : DKH picture change effects
   Avijit Sen             : IP-ROCIS
   Kantharuban Sivalingam : CASSCF convergence, NEVPT2, FIC-MRCI
   Bernardo de Souza      : ESD, SOC TD-DFT
   Georgi Stoychev        : AutoAux, RI-MP2 NMR, DLPNO-MP2 response
   Willem Van den Heuvel  : Paramagnetic NMR
   Boris Wezisla          : Elementary symmetry handling
   Frank Wennmohs         : Technical directorship


 We gratefully acknowledge several colleagues who have allowed us to
 interface, adapt or use parts of their codes:
   Stefan Grimme, W. Hujo, H. Kruse, P. Pracht,  : VdW corrections, initial TS optimization,
                  C. Bannwarth, S. Ehlert          DFT functionals, gCP, sTDA/sTD-DF
   Ed Valeev, F. Pavosevic, A. Kumar             : LibInt (2-el integral package), F12 methods
   Garnet Chan, S. Sharma, J. Yang, R. Olivares  : DMRG
   Ulf Ekstrom                                   : XCFun DFT Library
   Mihaly Kallay                                 : mrcc  (arbitrary order and MRCC methods)
   Jiri Pittner, Ondrej Demel                    : Mk-CCSD
   Frank Weinhold                                : gennbo (NPA and NBO analysis)
   Christopher J. Cramer and Donald G. Truhlar   : smd solvation model
   Lars Goerigk                                  : TD-DFT with DH, B97 family of functionals
   V. Asgeirsson, H. Jonsson                     : NEB implementation
   FAccTs GmbH                                   : IRC, NEB, NEB-TS, DLPNO-Multilevel, CI-OPT
                                                   MM, QMMM, 2- and 3-layer-ONIOM, Crystal-QMMM,
                                                   LR-CPCM, SF, NACMEs, symmetry and pop. for TD-DFT,
                                                   nearIR, NL-DFT gradient (VV10), updates on ESD,
                                                   ML-optimized integration grids
   S Lehtola, MJT Oliveira, MAL Marques          : LibXC Library
   Liviu Ungur et al                             : ANISO software


 Your calculation uses the libint2 library for the computation of 2-el integrals
 For citations please refer to: http://libint.valeyev.net

 Your ORCA version has been built with support for libXC version: 5.1.0
 For citations please refer to: https://tddft.org/programs/libxc/

 This ORCA versions uses:
   CBLAS   interface :  Fast vector & matrix operations
   LAPACKE interface :  Fast linear algebra routines
   SCALAPACK package :  Parallel linear algebra routines
   Shared memory     :  Shared parallel matrices
   BLAS/LAPACK       :  OpenBLAS 0.3.15  USE64BITINT DYNAMIC_ARCH NO_AFFINITY SkylakeX SINGLE_THREADED
        Core in use  :  SkylakeX
   Copyright (c) 2011-2014, The OpenBLAS Project


Your calculation utilizes the atom-pairwise dispersion correction
with the Becke-Johnson damping scheme (D3BJ)
Cite in your paper:
S.Grimme, S.Ehrlich, L.Goerigk, J Comput Chem, (2011), 32, 1456–1465 
S.Grimme, J.Antony, S.Ehrlich and H.Krieg, J.Chem.Phys., 132, (2010), 154104 
   

================================================================================

----- Orbital basis set information -----
Your calculation utilizes the basis: def2-TZVP
   F. Weigend and R. Ahlrichs, Phys. Chem. Chem. Phys. 7, 3297 (2005).

----- AuxJ basis set information -----
Your calculation utilizes the auxiliary basis: def2/J
   F. Weigend, Phys. Chem. Chem. Phys. 8, 1057 (2006).

================================================================================
                                        WARNINGS
                       Please study these warnings very carefully!
================================================================================


INFO   : the flag for use of the SHARK integral package has been found!

================================================================================
                                       INPUT FILE
================================================================================
NAME = ox_gs_A_orca0033.inp
|  1> ! engrad PBE0 D3BJ def2-TZVP  
|  2> %pal nprocs 8 end
|  3> %maxcore 3000
|  4>  
|  5> *xyz 0 1 
|  6> O   0.03079683034721319 0.7965793728984193 -0.015477211965699516
|  7> C   -0.712582938887894 -0.5095761688192652 0.046201350960345056
|  8> C   0.7196444331778505 -0.47315664102595195 0.05245046129184447
|  9> H   -1.299040114527138 -0.7386938748181779 0.8421447613238048
| 10> H   -1.233522272432718 -0.7322923776248143 -0.8322365109007818
| 11> H   1.1597263496058139 -0.5834480415854981 -0.9094253466398691
| 12> H   1.2589872144064804 -0.6955167643404475 0.9399329757176035
| 13> *
| 14> 
| 15>                          ****END OF INPUT****
================================================================================

                     *******************************
                     * Energy+Gradient Calculation *
                     *******************************

---------------------------------
CARTESIAN COORDINATES (ANGSTROEM)
---------------------------------
  O      0.030797    0.796579   -0.015477
  C     -0.712583   -0.509576    0.046201
  C      0.719644   -0.473157    0.052450
  H     -1.299040   -0.738694    0.842145
  H     -1.233522   -0.732292   -0.832237
  H      1.159726   -0.583448   -0.909425
  H      1.258987   -0.695517    0.939933

----------------------------
CARTESIAN COORDINATES (A.U.)
----------------------------
  NO LB      ZA    FRAG     MASS         X           Y           Z
   0 O     8.0000    0    15.999    0.058198    1.505317   -0.029248
   1 C     6.0000    0    12.011   -1.346587   -0.962959    0.087308
   2 C     6.0000    0    12.011    1.359931   -0.894136    0.099117
   3 H     1.0000    0     1.008   -2.454830   -1.395929    1.591423
   4 H     1.0000    0     1.008   -2.331019   -1.383832   -1.572699
   5 H     1.0000    0     1.008    2.191565   -1.102557   -1.718565
   6 H     1.0000    0     1.008    2.379141   -1.314336    1.776216

--------------------------------
INTERNAL COORDINATES (ANGSTROEM)
--------------------------------
 O      0   0   0     0.000000000000     0.00000000     0.00000000
 C      1   0   0     1.504147607648     0.00000000     0.00000000
 C      2   1   0     1.432703974546    58.93897378     0.00000000
 H      2   1   3     1.014865929353   120.91712651   115.37174769
 H      2   1   3     1.045291048488   113.38223094   247.37145970
 H      3   2   1     1.063504281180   114.02183746   265.71263259
 H      3   2   1     1.062054552985   120.39665138   107.82344876

---------------------------
INTERNAL COORDINATES (A.U.)
---------------------------
 O      0   0   0     0.000000000000     0.00000000     0.00000000
 C      1   0   0     2.842427043447     0.00000000     0.00000000
 C      2   1   0     2.707418142872    58.93897378     0.00000000
 H      2   1   3     1.917818669125   120.91712651   115.37174769
 H      2   1   3     1.975313811882   113.38223094   247.37145970
 H      3   2   1     2.009731833683   114.02183746   265.71263259
 H      3   2   1     2.006992244425   120.39665138   107.82344876

---------------------
BASIS SET INFORMATION
---------------------
There are 3 groups of distinct atoms

 Group   1 Type O   : 11s6p2d1f contracted to 5s3p2d1f pattern {62111/411/11/1}
 Group   2 Type C   : 11s6p2d1f contracted to 5s3p2d1f pattern {62111/411/11/1}
 Group   3 Type H   : 5s1p contracted to 3s1p pattern {311/1}

Atom   0O    basis set group =>   1
Atom   1C    basis set group =>   2
Atom   2C    basis set group =>   2
Atom   3H    basis set group =>   3
Atom   4H    basis set group =>   3
Atom   5H    basis set group =>   3
Atom   6H    basis set group =>   3
---------------------------------
AUXILIARY/J BASIS SET INFORMATION
---------------------------------
There are 3 groups of distinct atoms

 Group   1 Type O   : 12s5p4d2f1g contracted to 6s4p3d1f1g pattern {711111/2111/211/2/1}
 Group   2 Type C   : 12s5p4d2f1g contracted to 6s4p3d1f1g pattern {711111/2111/211/2/1}
 Group   3 Type H   : 5s2p1d contracted to 3s1p1d pattern {311/2/1}

Atom   0O    basis set group =>   1
Atom   1C    basis set group =>   2
Atom   2C    basis set group =>   2
Atom   3H    basis set group =>   3
Atom   4H    basis set group =>   3
Atom   5H    basis set group =>   3
Atom   6H    basis set group =>   3


           ************************************************************
           *        Program running with 8 parallel MPI-processes     *
           *              working on a common directory               *
           ************************************************************
------------------------------------------------------------------------------
                           ORCA GTO INTEGRAL CALCULATION
                           -- RI-GTO INTEGRALS CHOSEN --
------------------------------------------------------------------------------
------------------------------------------------------------------------------
                   ___                                                        
                  /   \      - P O W E R E D   B Y -                         
                 /     \                                                     
                 |  |  |   _    _      __       _____    __    __             
                 |  |  |  | |  | |    /  \     |  _  \  |  |  /  |          
                  \  \/   | |  | |   /    \    | | | |  |  | /  /          
                 / \  \   | |__| |  /  /\  \   | |_| |  |  |/  /          
                |  |  |   |  __  | /  /__\  \  |    /   |      \           
                |  |  |   | |  | | |   __   |  |    \   |  |\   \          
                \     /   | |  | | |  |  |  |  | |\  \  |  | \   \       
                 \___/    |_|  |_| |__|  |__|  |_| \__\ |__|  \__/        
                                                                              
                      - O R C A' S   B I G   F R I E N D -                    
                                      &                                       
                       - I N T E G R A L  F E E D E R -                       
                                                                              
 v1 FN, 2020, v2 2021                                                         
------------------------------------------------------------------------------


Reading SHARK input file ox_gs_A_orca0033.SHARKINP.tmp ... ok
----------------------
SHARK INTEGRAL PACKAGE
----------------------

Number of atoms                             ...      7
Number of basis functions                   ...    117
Number of shells                            ...     49
Maximum angular momentum                    ...      3
Integral batch strategy                     ... SHARK/LIBINT Hybrid
RI-J (if used) integral strategy            ... SPLIT-RIJ (Revised 2003 algorithm where possible)
Printlevel                                  ...      1
Contraction scheme used                     ... SEGMENTED contraction
Coulomb Range Separation                    ... NOT USED
Exchange Range Separation                   ... NOT USED
Finite Nucleus Model                        ... NOT USED
Auxiliary Coulomb fitting basis             ... AVAILABLE
   # of basis functions in Aux-J            ...    191
   # of shells in Aux-J                     ...     65
   Maximum angular momentum in Aux-J        ...      4
Auxiliary J/K fitting basis                 ... NOT available
Auxiliary Correlation fitting basis         ... NOT available
Auxiliary 'external' fitting basis          ... NOT available
Integral threshold                          ...     2.500000e-11
Primitive cut-off                           ...     2.500000e-12
Primitive pair pre-selection threshold      ...     2.500000e-12

Calculating pre-screening integrals         ... done (  0.0 sec) Dimension = 49
Organizing shell pair data                  ... done (  0.0 sec)
Shell pair information
Total number of shell pairs                 ...      1225
Shell pairs after pre-screening             ...      1220
Total number of primitive shell pairs       ...      3648
Primitive shell pairs kept                  ...      3152
          la=0 lb=0:    373 shell pairs
          la=1 lb=0:    351 shell pairs
          la=1 lb=1:     91 shell pairs
          la=2 lb=0:    162 shell pairs
          la=2 lb=1:     78 shell pairs
          la=2 lb=2:     21 shell pairs
          la=3 lb=0:     81 shell pairs
          la=3 lb=1:     39 shell pairs
          la=3 lb=2:     18 shell pairs
          la=3 lb=3:      6 shell pairs

Calculating one electron integrals          ... done (  0.0 sec)
Calculating RI/J V-Matrix + Cholesky decomp.... done (  0.0 sec)
Calculating Nuclear repulsion               ... done (  0.0 sec) ENN=     75.139767981484 Eh

SHARK setup successfully completed in   0.1 seconds

Maximum memory used throughout the entire GTOINT-calculation: 14.9 MB


           ************************************************************
           *        Program running with 8 parallel MPI-processes     *
           *              working on a common directory               *
           ************************************************************
-------------------------------------------------------------------------------
                                 ORCA SCF
-------------------------------------------------------------------------------

------------
SCF SETTINGS
------------
Hamiltonian:
 Density Functional     Method          .... DFT(GTOs)
 Exchange Functional    Exchange        .... PBE
   PBE kappa parameter   XKappa         ....  0.804000
   PBE mue parameter    XMuePBE         ....  0.219520
 Correlation Functional Correlation     .... PBE
   PBE beta parameter  CBetaPBE         ....  0.066725
 LDA part of GGA corr.  LDAOpt          .... PW91-LDA
 Gradients option       PostSCFGGA      .... off
 Hybrid DFT is turned on
   Fraction HF Exchange ScalHFX         ....  0.250000
   Scaling of DF-GGA-X  ScalDFX         ....  0.750000
   Scaling of DF-GGA-C  ScalDFC         ....  1.000000
   Scaling of DF-LDA-C  ScalLDAC        ....  1.000000
   Perturbative correction              ....  0.000000
   Density functional embedding theory  .... OFF
   NL short-range parameter             ....  6.900000
 RI-approximation to the Coulomb term is turned on
   Number of AuxJ basis functions       .... 191
   RIJ-COSX (HFX calculated with COS-X)).... on


General Settings:
 Integral files         IntName         .... ox_gs_A_orca0033
 Hartree-Fock type      HFTyp           .... RHF
 Total Charge           Charge          ....    0
 Multiplicity           Mult            ....    1
 Number of Electrons    NEL             ....   24
 Basis Dimension        Dim             ....  117
 Nuclear Repulsion      ENuc            ....     75.1397679815 Eh

Convergence Acceleration:
 DIIS                   CNVDIIS         .... on
   Start iteration      DIISMaxIt       ....    12
   Startup error        DIISStart       ....  0.200000
   # of expansion vecs  DIISMaxEq       ....     5
   Bias factor          DIISBfac        ....   1.050
   Max. coefficient     DIISMaxC        ....  10.000
 Trust-Rad. Augm. Hess. CNVTRAH         .... auto
   Auto Start mean grad. ratio tolernc. ....  1.125000
   Auto Start start iteration           ....    20
   Auto Start num. interpolation iter.  ....    10
   Max. Number of Micro iterations      ....    16
   Max. Number of Macro iterations      .... Maxiter - #DIIS iter
   Number of Davidson start vectors     ....     2
   Converg. threshold I  (grad. norm)   ....   1.000e-05
   Converg. threshold II (energy diff.) ....   1.000e-08
   Grad. Scal. Fac. for Micro threshold ....   0.100
   Minimum threshold for Micro iter.    ....   0.010
   NR start threshold (gradient norm)   ....   0.001
   Initial trust radius                 ....   0.400
   Minimum AH scaling param. (alpha)    ....   1.000
   Maximum AH scaling param. (alpha)    .... 1000.000
   Orbital update algorithm             .... Taylor
   White noise on init. David. guess    .... on
   Maximum white noise                  ....   0.010
   Quad. conv. algorithm                .... NR
 SOSCF                  CNVSOSCF        .... on
   Start iteration      SOSCFMaxIt      ....   150
   Startup grad/error   SOSCFStart      ....  0.003300
 Level Shifting         CNVShift        .... on
   Level shift para.    LevelShift      ....    0.2500
   Turn off err/grad.   ShiftErr        ....    0.0010
 Zerner damping         CNVZerner       .... off
 Static damping         CNVDamp         .... on
   Fraction old density DampFac         ....    0.7000
   Max. Damping (<1)    DampMax         ....    0.9800
   Min. Damping (>=0)   DampMin         ....    0.0000
   Turn off err/grad.   DampErr         ....    0.1000
 Fernandez-Rico         CNVRico         .... off

SCF Procedure:
 Maximum # iterations   MaxIter         ....   125
 SCF integral mode      SCFMode         .... Direct
   Integral package                     .... SHARK and LIBINT hybrid scheme
 Reset frequency        DirectResetFreq ....    20
 Integral Threshold     Thresh          ....  2.500e-11 Eh
 Primitive CutOff       TCut            ....  2.500e-12 Eh

Convergence Tolerance:
 Convergence Check Mode ConvCheckMode   .... Total+1el-Energy
 Convergence forced     ConvForced      .... 0
 Energy Change          TolE            ....  1.000e-08 Eh
 1-El. energy change                    ....  1.000e-05 Eh
 Orbital Gradient       TolG            ....  1.000e-05
 Orbital Rotation angle TolX            ....  1.000e-05
 DIIS Error             TolErr          ....  5.000e-07


Diagonalization of the overlap matrix:
Smallest eigenvalue                        ... 3.271e-04
Time for diagonalization                   ...    0.001 sec
Threshold for overlap eigenvalues          ... 1.000e-08
Number of eigenvalues below threshold      ... 0
Time for construction of square roots      ...    0.001 sec
Total time needed                          ...    0.003 sec

Time for model grid setup =    0.022 sec

------------------------------
INITIAL GUESS: MODEL POTENTIAL
------------------------------
Loading Hartree-Fock densities                     ... done
Calculating cut-offs                               ... done
Initializing the effective Hamiltonian             ... done
Setting up the integral package (SHARK)            ... done
Starting the Coulomb interaction                   ... done (   0.0 sec)
Reading the grid                                   ... done
Mapping shells                                     ... done
Starting the XC term evaluation                    ... done (   0.0 sec)
  promolecular density results
     # of electrons  =     23.997192606
     EX              =    -19.554982037
     EC              =     -0.783320746
     EX+EC           =    -20.338302783
Transforming the Hamiltonian                       ... done (   0.0 sec)
Diagonalizing the Hamiltonian                      ... done (   0.0 sec)
Back transforming the eigenvectors                 ... done (   0.0 sec)
Now organizing SCF variables                       ... done
                      ------------------
                      INITIAL GUESS DONE (   0.0 sec)
                      ------------------
-------------------
DFT GRID GENERATION
-------------------

General Integration Accuracy     IntAcc      ... 4.388
Radial Grid Type                 RadialGrid  ... OptM3 with GC (2021)
Angular Grid (max. ang.)         AngularGrid ... 4 (Lebedev-302)
Angular grid pruning method      GridPruning ... 4 (adaptive)
Weight generation scheme         WeightScheme... Becke
Basis function cutoff            BFCut       ... 1.0000e-11
Integration weight cutoff        WCut        ... 1.0000e-14
Angular grids for H and He will be reduced by one unit
Partially contracted basis set               ... off
Rotationally invariant grid construction     ... off

Total number of grid points                  ...    31268
Total number of batches                      ...      492
Average number of points per batch           ...       63
Average number of grid points per atom       ...     4467
Time for grid setup =    0.109 sec

--------------------
COSX GRID GENERATION
--------------------

GRIDX 1
-------
General Integration Accuracy     IntAcc      ... 3.816
Radial Grid Type                 RadialGrid  ... OptM3 with GC (2021)
Angular Grid (max. ang.)         AngularGrid ... 1 (Lebedev-50)
Angular grid pruning method      GridPruning ... 4 (adaptive)
Weight generation scheme         WeightScheme... Becke
Basis function cutoff            BFCut       ... 1.0000e-11
Integration weight cutoff        WCut        ... 1.0000e-14
Angular grids for H and He will be reduced by one unit
Partially contracted basis set               ... on
Rotationally invariant grid construction     ... off

Total number of grid points                  ...     4036
Total number of batches                      ...       68
Average number of points per batch           ...       59
Average number of grid points per atom       ...      577
UseSFitting                                  ... on

GRIDX 2
-------
General Integration Accuracy     IntAcc      ... 4.020
Radial Grid Type                 RadialGrid  ... OptM3 with GC (2021)
Angular Grid (max. ang.)         AngularGrid ... 2 (Lebedev-110)
Angular grid pruning method      GridPruning ... 4 (adaptive)
Weight generation scheme         WeightScheme... Becke
Basis function cutoff            BFCut       ... 1.0000e-11
Integration weight cutoff        WCut        ... 1.0000e-14
Angular grids for H and He will be reduced by one unit
Partially contracted basis set               ... on
Rotationally invariant grid construction     ... off

Total number of grid points                  ...     8714
Total number of batches                      ...      140
Average number of points per batch           ...       62
Average number of grid points per atom       ...     1245
UseSFitting                                  ... on

GRIDX 3
-------
General Integration Accuracy     IntAcc      ... 4.338
Radial Grid Type                 RadialGrid  ... OptM3 with GC (2021)
Angular Grid (max. ang.)         AngularGrid ... 3 (Lebedev-194)
Angular grid pruning method      GridPruning ... 4 (adaptive)
Weight generation scheme         WeightScheme... Becke
Basis function cutoff            BFCut       ... 1.0000e-11
Integration weight cutoff        WCut        ... 1.0000e-14
Angular grids for H and He will be reduced by one unit
Partially contracted basis set               ... on
Rotationally invariant grid construction     ... off

Total number of grid points                  ...    19229
Total number of batches                      ...      305
Average number of points per batch           ...       63
Average number of grid points per atom       ...     2747
UseSFitting                                  ... on

Time for X-Grid setup             =    0.073 sec

--------------
SCF ITERATIONS
--------------
ITER       Energy         Delta-E        Max-DP      RMS-DP      [F,P]     Damp
               ***  Starting incremental Fock matrix formation  ***
  0   -153.5939653582   0.000000000000 0.03081965  0.00113830  0.1693110 0.7000
  1   -153.6225857657  -0.028620407506 0.01801919  0.00085073  0.0727394 0.7000
                               ***Turning on DIIS***
  2   -153.6349129639  -0.012327198209 0.02849538  0.00148407  0.0354115 0.0000
  3   -153.6547498224  -0.019836858554 0.01461683  0.00063333  0.0381214 0.0000
  4   -153.6584052824  -0.003655459996 0.00385329  0.00016613  0.0079704 0.0000
  5   -153.6585650905  -0.000159808091 0.00149711  0.00006188  0.0046242 0.0000
                      *** Initiating the SOSCF procedure ***
                           *** Shutting down DIIS ***
                      *** Re-Reading the Fockian *** 
                      *** Removing any level shift *** 
ITER      Energy       Delta-E        Grad      Rot      Max-DP    RMS-DP
  6   -153.65859441  -0.0000293172  0.000084  0.000084  0.000745  0.000027
               *** Restarting incremental Fock matrix formation ***
  7   -153.65857888   0.0000155264  0.000055  0.000073  0.000111  0.000005
  8   -153.65857883   0.0000000524  0.000099  0.000063  0.000078  0.000003
  9   -153.65857892  -0.0000000922  0.000009  0.000011  0.000018  0.000001
 10   -153.65857892   0.0000000002  0.000010  0.000006  0.000010  0.000000
                 **** Energy Check signals convergence ****
              ***Rediagonalizing the Fockian in SOSCF/NRSCF***

               *****************************************************
               *                     SUCCESS                       *
               *           SCF CONVERGED AFTER  11 CYCLES          *
               *****************************************************

Old exchange energy                            =     -5.007456303 Eh
New exchange energy                            =     -5.007444057 Eh
Exchange energy change after final integration =      0.000012246 Eh
Total energy after final integration           =   -153.658566677 Eh
Final COS-X integration done in                =     0.257 sec

----------------
TOTAL SCF ENERGY
----------------

Total Energy       :         -153.65856668 Eh           -4181.26217 eV

Components:
Nuclear Repulsion  :           75.13976798 Eh            2044.65704 eV
Electronic Energy  :         -228.79833466 Eh           -6225.91921 eV
One Electron Energy:         -356.97668281 Eh           -9713.82938 eV
Two Electron Energy:          128.17834816 Eh            3487.91018 eV
Max COSX asymmetry :            0.00000228 Eh               0.00006 eV

Virial components:
Potential Energy   :         -306.81355576 Eh           -8348.82130 eV
Kinetic Energy     :          153.15498908 Eh            4167.55913 eV
Virial Ratio       :            2.00328803


DFT components:
N(Alpha)           :       11.999998716759 electrons
N(Beta)            :       11.999998716759 electrons
N(Total)           :       23.999997433518 electrons
E(X)               :      -14.991578064318 Eh       
E(C)               :       -0.790692597175 Eh       
E(XC)              :      -15.782270661493 Eh       
DFET-embed. en.    :        0.000000000000 Eh       

---------------
SCF CONVERGENCE
---------------

  Last Energy change         ...   -1.6668e-09  Tolerance :   1.0000e-08
  Last MAX-Density change    ...    5.5511e-16  Tolerance :   1.0000e-07
  Last RMS-Density change    ...    2.2136e-17  Tolerance :   5.0000e-09
  Last Orbital Gradient      ...    4.1565e-07  Tolerance :   1.0000e-05
  Last Orbital Rotation      ...    6.5448e-07  Tolerance :   1.0000e-05

             **** THE GBW FILE WAS UPDATED (ox_gs_A_orca0033.gbw) ****
             **** DENSITY ox_gs_A_orca0033.scfp WAS UPDATED ****
             **** ENERGY FILE WAS UPDATED (ox_gs_A_orca0033.en.tmp) ****
             **** THE GBW FILE WAS UPDATED (ox_gs_A_orca0033.gbw) ****
             **** DENSITY ox_gs_A_orca0033.scfp WAS UPDATED ****
----------------
ORBITAL ENERGIES
----------------

  NO   OCC          E(Eh)            E(eV) 
   0   2.0000     -19.218109      -522.9513 
   1   2.0000     -10.269344      -279.4431 
   2   2.0000     -10.264332      -279.3067 
   3   2.0000      -1.079032       -29.3619 
   4   2.0000      -0.720145       -19.5961 
   5   2.0000      -0.659326       -17.9412 
   6   2.0000      -0.535789       -14.5796 
   7   2.0000      -0.501800       -13.6547 
   8   2.0000      -0.411469       -11.1966 
   9   2.0000      -0.387232       -10.5371 
  10   2.0000      -0.342707        -9.3255 
  11   2.0000      -0.287112        -7.8127 
  12   0.0000       0.059183         1.6104 
  13   0.0000       0.070923         1.9299 
  14   0.0000       0.085784         2.3343 
  15   0.0000       0.099819         2.7162 
  16   0.0000       0.106598         2.9007 
  17   0.0000       0.159273         4.3340 
  18   0.0000       0.186476         5.0743 
  19   0.0000       0.219908         5.9840 
  20   0.0000       0.268280         7.3003 
  21   0.0000       0.270102         7.3498 
  22   0.0000       0.294587         8.0161 
  23   0.0000       0.309469         8.4211 
  24   0.0000       0.399946        10.8831 
  25   0.0000       0.410447        11.1688 
  26   0.0000       0.416000        11.3199 
  27   0.0000       0.439386        11.9563 
  28   0.0000       0.457654        12.4534 
  29   0.0000       0.479473        13.0471 
  30   0.0000       0.518180        14.1004 
  31   0.0000       0.523825        14.2540 
  32   0.0000       0.558233        15.1903 
  33   0.0000       0.684880        18.6365 
  34   0.0000       0.711171        19.3520 
  35   0.0000       0.741582        20.1795 
  36   0.0000       0.825438        22.4613 
  37   0.0000       0.863045        23.4846 
  38   0.0000       0.876284        23.8449 
  39   0.0000       0.938802        25.5461 
  40   0.0000       1.008171        27.4337 
  41   0.0000       1.032123        28.0855 
  42   0.0000       1.082235        29.4491 
  43   0.0000       1.090466        29.6731 
  44   0.0000       1.178519        32.0691 
  45   0.0000       1.347859        36.6771 
  46   0.0000       1.470476        40.0137 
  47   0.0000       1.478358        40.2282 
  48   0.0000       1.507229        41.0138 
  49   0.0000       1.518752        41.3274 
  50   0.0000       1.597113        43.4597 
  51   0.0000       1.651877        44.9499 
  52   0.0000       1.663197        45.2579 
  53   0.0000       1.736757        47.2596 
  54   0.0000       1.798905        48.9507 
  55   0.0000       1.812314        49.3156 
  56   0.0000       1.843100        50.1533 
  57   0.0000       1.882899        51.2363 
  58   0.0000       1.921696        52.2920 
  59   0.0000       1.979208        53.8570 
  60   0.0000       2.164382        58.8958 
  61   0.0000       2.174357        59.1673 
  62   0.0000       2.204793        59.9955 
  63   0.0000       2.266760        61.6817 
  64   0.0000       2.281688        62.0879 
  65   0.0000       2.448587        66.6294 
  66   0.0000       2.455736        66.8240 
  67   0.0000       2.528707        68.8096 
  68   0.0000       2.552658        69.4614 
  69   0.0000       2.638219        71.7896 
  70   0.0000       2.648217        72.0616 
  71   0.0000       2.666817        72.5678 
  72   0.0000       2.703305        73.5607 
  73   0.0000       2.733768        74.3896 
  74   0.0000       2.766227        75.2729 
  75   0.0000       2.794751        76.0490 
  76   0.0000       2.891653        78.6859 
  77   0.0000       2.945444        80.1496 
  78   0.0000       2.982397        81.1552 
  79   0.0000       3.003085        81.7181 
  80   0.0000       3.040007        82.7228 
  81   0.0000       3.142087        85.5005 
  82   0.0000       3.169720        86.2525 
  83   0.0000       3.241155        88.1963 
  84   0.0000       3.289333        89.5073 
  85   0.0000       3.361411        91.4687 
  86   0.0000       3.402154        92.5773 
  87   0.0000       3.445448        93.7554 
  88   0.0000       3.605777        98.1182 
  89   0.0000       3.625461        98.6538 
  90   0.0000       3.673477        99.9604 
  91   0.0000       3.710935       100.9797 
  92   0.0000       3.950466       107.4977 
  93   0.0000       4.039733       109.9267 
  94   0.0000       4.150242       112.9338 
  95   0.0000       4.216519       114.7373 
  96   0.0000       4.335731       117.9812 
  97   0.0000       4.366615       118.8216 
  98   0.0000       4.475280       121.7786 
  99   0.0000       4.595313       125.0448 
 100   0.0000       4.769178       129.7759 
 101   0.0000       4.846593       131.8825 
 102   0.0000       5.273083       143.4879 
 103   0.0000       5.416167       147.3814 
 104   0.0000       5.640822       153.4946 
 105   0.0000       5.699462       155.0902 
 106   0.0000       5.732975       156.0022 
 107   0.0000       5.829811       158.6372 
 108   0.0000       5.988793       162.9633 
 109   0.0000       6.558132       178.4558 
 110   0.0000       6.597261       179.5206 
 111   0.0000       6.784612       184.6187 
 112   0.0000       6.968090       189.6114 
 113   0.0000       7.183250       195.4662 
 114   0.0000      22.389369       609.2457 
 115   0.0000      22.569552       614.1487 
 116   0.0000      43.823346      1192.4939 

                    ********************************
                    * MULLIKEN POPULATION ANALYSIS *
                    ********************************

-----------------------
MULLIKEN ATOMIC CHARGES
-----------------------
   0 O :   -0.334760
   1 C :   -0.088377
   2 C :   -0.048123
   3 H :    0.122554
   4 H :    0.113564
   5 H :    0.114739
   6 H :    0.120403
Sum of atomic charges:    0.0000000

--------------------------------
MULLIKEN REDUCED ORBITAL CHARGES
--------------------------------
  0 O s       :     3.872426  s :     3.872426
      pz      :     1.865532  p :     4.422398
      px      :     1.340884
      py      :     1.215983
      dz2     :     0.005405  d :     0.037981
      dxz     :     0.002197
      dyz     :     0.005933
      dx2y2   :     0.011021
      dxy     :     0.013425
      f0      :     0.000218  f :     0.001954
      f+1     :     0.000161
      f-1     :     0.000441
      f+2     :     0.000090
      f-2     :     0.000172
      f+3     :     0.000372
      f-3     :     0.000499
  1 C s       :     3.213201  s :     3.213201
      pz      :     1.063999  p :     2.763049
      px      :     0.923322
      py      :     0.775727
      dz2     :     0.004771  d :     0.101445
      dxz     :     0.024356
      dyz     :     0.026338
      dx2y2   :     0.025582
      dxy     :     0.020398
      f0      :     0.001241  f :     0.010682
      f+1     :     0.001221
      f-1     :     0.000595
      f+2     :     0.001517
      f-2     :     0.001356
      f+3     :     0.002037
      f-3     :     0.002715
  2 C s       :     3.210135  s :     3.210135
      pz      :     1.043437  p :     2.711545
      px      :     0.908133
      py      :     0.759976
      dz2     :     0.006943  d :     0.115070
      dxz     :     0.025206
      dyz     :     0.031422
      dx2y2   :     0.029696
      dxy     :     0.021803
      f0      :     0.001736  f :     0.011373
      f+1     :     0.001310
      f-1     :     0.000568
      f+2     :     0.001460
      f-2     :     0.001466
      f+3     :     0.001789
      f-3     :     0.003043
  3 H s       :     0.854036  s :     0.854036
      pz      :     0.010259  p :     0.023410
      px      :     0.008402
      py      :     0.004749
  4 H s       :     0.863871  s :     0.863871
      pz      :     0.011025  p :     0.022565
      px      :     0.007021
      py      :     0.004519
  5 H s       :     0.862839  s :     0.862839
      pz      :     0.012283  p :     0.022422
      px      :     0.005684
      py      :     0.004455
  6 H s       :     0.857770  s :     0.857770
      pz      :     0.010898  p :     0.021827
      px      :     0.006839
      py      :     0.004091


                     *******************************
                     * LOEWDIN POPULATION ANALYSIS *
                     *******************************

----------------------
LOEWDIN ATOMIC CHARGES
----------------------
   0 O :    0.070542
   1 C :   -0.233788
   2 C :   -0.283901
   3 H :    0.100512
   4 H :    0.111110
   5 H :    0.121143
   6 H :    0.114383

-------------------------------
LOEWDIN REDUCED ORBITAL CHARGES
-------------------------------
  0 O s       :     3.434622  s :     3.434622
      pz      :     1.761517  p :     4.410125
      px      :     1.326030
      py      :     1.322577
      dz2     :     0.011079  d :     0.079277
      dxz     :     0.006206
      dyz     :     0.012799
      dx2y2   :     0.027565
      dxy     :     0.021628
      f0      :     0.000504  f :     0.005435
      f+1     :     0.000193
      f-1     :     0.000858
      f+2     :     0.000191
      f-2     :     0.000722
      f+3     :     0.001007
      f-3     :     0.001960
  1 C s       :     2.799218  s :     2.799218
      pz      :     1.072199  p :     2.923605
      px      :     1.051548
      py      :     0.799858
      dz2     :     0.046707  d :     0.447389
      dxz     :     0.134883
      dyz     :     0.072522
      dx2y2   :     0.098936
      dxy     :     0.094341
      f0      :     0.007238  f :     0.063576
      f+1     :     0.005665
      f-1     :     0.005354
      f+2     :     0.008807
      f-2     :     0.005262
      f+3     :     0.013106
      f-3     :     0.018144
  2 C s       :     2.813582  s :     2.813582
      pz      :     1.047977  p :     2.905591
      px      :     1.045705
      py      :     0.811908
      dz2     :     0.059458  d :     0.490008
      dxz     :     0.131320
      dyz     :     0.082677
      dx2y2   :     0.112608
      dxy     :     0.103945
      f0      :     0.011229  f :     0.074720
      f+1     :     0.005818
      f-1     :     0.005931
      f+2     :     0.009349
      f-2     :     0.006205
      f+3     :     0.014539
      f-3     :     0.021649
  3 H s       :     0.825535  s :     0.825535
      pz      :     0.034138  p :     0.073953
      px      :     0.024348
      py      :     0.015467
  4 H s       :     0.820852  s :     0.820852
      pz      :     0.034242  p :     0.068038
      px      :     0.019697
      py      :     0.014099
  5 H s       :     0.814066  s :     0.814066
      pz      :     0.035797  p :     0.064791
      px      :     0.015971
      py      :     0.013023
  6 H s       :     0.820838  s :     0.820838
      pz      :     0.033209  p :     0.064780
      px      :     0.019072
      py      :     0.012499


                      *****************************
                      * MAYER POPULATION ANALYSIS *
                      *****************************

  NA   - Mulliken gross atomic population
  ZA   - Total nuclear charge
  QA   - Mulliken gross atomic charge
  VA   - Mayer's total valence
  BVA  - Mayer's bonded valence
  FA   - Mayer's free valence

  ATOM       NA         ZA         QA         VA         BVA        FA
  0 O      8.3348     8.0000    -0.3348     1.9690     1.9690    -0.0000
  1 C      6.0884     6.0000    -0.0884     3.9838     3.9838     0.0000
  2 C      6.0481     6.0000    -0.0481     3.9904     3.9904     0.0000
  3 H      0.8774     1.0000     0.1226     0.9583     0.9583     0.0000
  4 H      0.8864     1.0000     0.1136     0.9607     0.9607    -0.0000
  5 H      0.8853     1.0000     0.1147     0.9662     0.9662     0.0000
  6 H      0.8796     1.0000     0.1204     0.9579     0.9579     0.0000

  Mayer bond orders larger than 0.100000
B(  0-O ,  1-C ) :   0.9785 B(  0-O ,  2-C ) :   0.9829 B(  1-C ,  2-C ) :   1.0767 
B(  1-C ,  3-H ) :   0.9592 B(  1-C ,  4-H ) :   0.9590 B(  2-C ,  5-H ) :   0.9675 
B(  2-C ,  6-H ) :   0.9493 

-------
TIMINGS
-------

Total SCF time: 0 days 0 hours 0 min 2 sec 

Total time                  ....       2.498 sec
Sum of individual times     ....       2.309 sec  ( 92.4%)

Fock matrix formation       ....       2.044 sec  ( 81.8%)
  Split-RI-J                ....       0.230 sec  ( 11.2% of F)
  Chain of spheres X        ....       1.405 sec  ( 68.7% of F)
  XC integration            ....       0.388 sec  ( 19.0% of F)
    Basis function eval.    ....       0.103 sec  ( 26.6% of XC)
    Density eval.           ....       0.078 sec  ( 20.1% of XC)
    XC-Functional eval.     ....       0.022 sec  (  5.6% of XC)
    XC-Potential eval.      ....       0.137 sec  ( 35.4% of XC)
Diagonalization             ....       0.015 sec  (  0.6%)
Density matrix formation    ....       0.001 sec  (  0.1%)
Population analysis         ....       0.004 sec  (  0.2%)
Initial guess               ....       0.017 sec  (  0.7%)
Orbital Transformation      ....       0.000 sec  (  0.0%)
Orbital Orthonormalization  ....       0.000 sec  (  0.0%)
DIIS solution               ....       0.013 sec  (  0.5%)
SOSCF solution              ....       0.011 sec  (  0.4%)
Grid generation             ....       0.204 sec  (  8.2%)

Maximum memory used throughout the entire SCF-calculation: 61.1 MB


-------------------------------------------------------------------------------
                          DFT DISPERSION CORRECTION                            
                                                                               
                              DFTD3 V3.1  Rev 1                                
                          USING Becke-Johnson damping                          
-------------------------------------------------------------------------------
The PBE0 functional is recognized
Active option DFTDOPT                   ...         4   

molecular C6(AA) [au] = 350.746075 


            DFT-D V3
 parameters
 s6 scaling factor         :     1.0000 
 a1 scaling factor         :     0.4145 
 s8 scaling factor         :     1.2177 
 a2 scaling factor         :     4.8593 
 ad hoc parameters k1-k3   :    16.0000     1.3333    -4.0000 

 Edisp/kcal,au: -1.516881820602  -0.002417304792 
 E6   /kcal   :  -0.995144279 
 E8   /kcal   :  -0.521737541 
 % E8         :  34.395398133 

-------------------------   ----------------
Dispersion correction           -0.002417305
-------------------------   ----------------


-------------------------   --------------------
FINAL SINGLE POINT ENERGY      -153.660983981408
-------------------------   --------------------



           ************************************************************
           *        Program running with 8 parallel MPI-processes     *
           *              working on a common directory               *
           ************************************************************
------------------------------------------------------------------------------
                         ORCA SCF GRADIENT CALCULATION
------------------------------------------------------------------------------

 ... reading COSX grid (gridx3)
Gradient of the Kohn-Sham DFT energy:
Kohn-Sham wavefunction type      ... RKS
Hartree-Fock exchange scaling    ...    0.250
Number of operators              ...    1
Number of atoms                  ...    7
Basis set dimensions             ...  117
Integral neglect threshold       ... 2.5e-11
Integral primitive cutoff        ... 2.5e-12
SHARK Integral package           ... ON

Nuc. rep. gradient       (SHARK) ... done (  0.0 sec)
HCore & Overlap gradient (SHARK) ... done (  0.0 sec)
RI-J gradient            (SHARK) ... done (  0.1 sec)
COSX-gradient                    ... done (  0.3 sec)
Exchange-correlation gradient    ... done
Dispersion correction            ... done

------------------
CARTESIAN GRADIENT
------------------

   1   O   :    0.021724711    0.039754069   -0.021266266
   2   C   :   -0.035070842   -0.041778431    0.033565365
   3   C   :    0.010840077   -0.024126645    0.017827748
   4   H   :    0.023457815    0.003191548   -0.057271638
   5   H   :    0.008828931    0.004667365    0.031722103
   6   H   :   -0.018307753    0.016927933    0.007765268
   7   H   :   -0.011517414    0.001280836   -0.012454632

Difference to translation invariance:
           :   -0.0000444753   -0.0000833253   -0.0001120519

Difference to rotation invariance:
           :   -0.0001383538   -0.0000134801    0.0000510751

Norm of the cartesian gradient     ...    0.1163702193
RMS gradient                       ...    0.0253940637
MAX gradient                       ...    0.0572716376

-------
TIMINGS
-------

Total SCF gradient time            ...        0.690 sec

One electron gradient       ....       0.010 sec  (  1.4%)
RI-J Coulomb gradient       ....       0.077 sec  ( 11.2%)
COSX gradient               ....       0.305 sec  ( 44.2%)
XC gradient                 ....       0.157 sec  ( 22.7%)

Maximum memory used throughout the entire SCFGRAD-calculation: 35.9 MB

                            ***************************************
                            *     ORCA property calculations      *
                            ***************************************

                                    ---------------------
                                    Active property flags
                                    ---------------------
   (+) Dipole Moment


------------------------------------------------------------------------------
                       ORCA ELECTRIC PROPERTIES CALCULATION
------------------------------------------------------------------------------

Dipole Moment Calculation                       ... on
Quadrupole Moment Calculation                   ... off
Polarizability Calculation                      ... off
GBWName                                         ... ox_gs_A_orca0033.gbw
Electron density                                ... ox_gs_A_orca0033.scfp
The origin for moment calculation is the CENTER OF MASS  = ( 0.019851, -0.078547  0.041954)

-------------
DIPOLE MOMENT
-------------
                                X             Y             Z
Electronic contribution:      0.11104       1.55539       0.08952
Nuclear contribution   :     -0.14593      -2.41156      -0.04595
                        -----------------------------------------
Total Dipole Moment    :     -0.03490      -0.85617       0.04357
                        -----------------------------------------
Magnitude (a.u.)       :      0.85799
Magnitude (Debye)      :      2.18083



--------------------
Rotational spectrum 
--------------------
 
Rotational constants in cm-1:     0.831652     0.754085     0.463420 
Rotational constants in MHz : 24932.307912 22606.907746 13892.990602 

 Dipole components along the rotational axes: 
x,y,z [a.u.] :    -0.529105    -0.675375    -0.007649 
x,y,z [Debye]:    -1.344878    -1.716666    -0.019442 

 

Timings for individual modules:

Sum of individual times         ...        4.059 sec (=   0.068 min)
GTO integral calculation        ...        0.318 sec (=   0.005 min)   7.8 %
SCF iterations                  ...        2.710 sec (=   0.045 min)  66.8 %
SCF Gradient evaluation         ...        1.031 sec (=   0.017 min)  25.4 %
                             ****ORCA TERMINATED NORMALLY****
TOTAL RUN TIME: 0 days 0 hours 0 minutes 4 seconds 332 msec
