
                                 *****************
                                 * O   R   C   A *
                                 *****************

                                            #,                                       
                                            ###                                      
                                            ####                                     
                                            #####                                    
                                            ######                                   
                                           ########,                                 
                                     ,,################,,,,,                         
                               ,,#################################,,                 
                          ,,##########################################,,             
                       ,#########################################, ''#####,          
                    ,#############################################,,   '####,        
                  ,##################################################,,,,####,       
                ,###########''''           ''''###############################       
              ,#####''   ,,,,##########,,,,          '''####'''          '####       
            ,##' ,,,,###########################,,,                        '##       
           ' ,,###''''                  '''############,,,                           
         ,,##''                                '''############,,,,        ,,,,,,###''
      ,#''                                            '''#######################'''  
     '                                                          ''''####''''         
             ,#######,   #######,   ,#######,      ##                                
            ,#'     '#,  ##    ##  ,#'     '#,    #''#        ######   ,####,        
            ##       ##  ##   ,#'  ##            #'  '#       #        #'  '#        
            ##       ##  #######   ##           ,######,      #####,   #    #        
            '#,     ,#'  ##    ##  '#,     ,#' ,#      #,         ##   #,  ,#        
             '#######'   ##     ##  '#######'  #'      '#     #####' # '####'        



                  #######################################################
                  #                        -***-                        #
                  #          Department of theory and spectroscopy      #
                  #    Directorship and core code : Frank Neese         #
                  #        Max Planck Institute fuer Kohlenforschung    #
                  #                Kaiser Wilhelm Platz 1               #
                  #                 D-45470 Muelheim/Ruhr               #
                  #                      Germany                        #
                  #                                                     #
                  #                  All rights reserved                #
                  #                        -***-                        #
                  #######################################################


                         Program Version 5.0.2 -  RELEASE  -


 With contributions from (in alphabetic order):
   Daniel Aravena         : Magnetic Suceptibility
   Michael Atanasov       : Ab Initio Ligand Field Theory (pilot matlab implementation)
   Alexander A. Auer      : GIAO ZORA, VPT2 properties, NMR spectrum
   Ute Becker             : Parallelization
   Giovanni Bistoni       : ED, misc. LED, open-shell LED, HFLD
   Martin Brehm           : Molecular dynamics
   Dmytro Bykov           : SCF Hessian
   Vijay G. Chilkuri      : MRCI spin determinant printing, contributions to CSF-ICE
   Dipayan Datta          : RHF DLPNO-CCSD density
   Achintya Kumar Dutta   : EOM-CC, STEOM-CC
   Dmitry Ganyushin       : Spin-Orbit,Spin-Spin,Magnetic field MRCI
   Miquel Garcia          : C-PCM and meta-GGA Hessian, CC/C-PCM, Gaussian charge scheme
   Yang Guo               : DLPNO-NEVPT2, F12-NEVPT2, CIM, IAO-localization
   Andreas Hansen         : Spin unrestricted coupled pair/coupled cluster methods
   Benjamin Helmich-Paris : MC-RPA, TRAH-SCF, COSX integrals
   Lee Huntington         : MR-EOM, pCC
   Robert Izsak           : Overlap fitted RIJCOSX, COSX-SCS-MP3, EOM
   Marcus Kettner         : VPT2
   Christian Kollmar      : KDIIS, OOCD, Brueckner-CCSD(T), CCSD density, CASPT2, CASPT2-K
   Simone Kossmann        : Meta GGA functionals, TD-DFT gradient, OOMP2, MP2 Hessian
   Martin Krupicka        : Initial AUTO-CI
   Lucas Lang             : DCDCAS
   Marvin Lechner         : AUTO-CI (C++ implementation), FIC-MRCC
   Dagmar Lenk            : GEPOL surface, SMD
   Dimitrios Liakos       : Extrapolation schemes; Compound Job, initial MDCI parallelization
   Dimitrios Manganas     : Further ROCIS development; embedding schemes
   Dimitrios Pantazis     : SARC Basis sets
   Anastasios Papadopoulos: AUTO-CI, single reference methods and gradients
   Taras Petrenko         : DFT Hessian,TD-DFT gradient, ASA, ECA, R-Raman, ABS, FL, XAS/XES, NRVS
   Peter Pinski           : DLPNO-MP2, DLPNO-MP2 Gradient
   Christoph Reimann      : Effective Core Potentials
   Marius Retegan         : Local ZFS, SOC
   Christoph Riplinger    : Optimizer, TS searches, QM/MM, DLPNO-CCSD(T), (RO)-DLPNO pert. Triples
   Tobias Risthaus        : Range-separated hybrids, TD-DFT gradient, RPA, STAB
   Michael Roemelt        : Original ROCIS implementation
   Masaaki Saitow         : Open-shell DLPNO-CCSD energy and density
   Barbara Sandhoefer     : DKH picture change effects
   Avijit Sen             : IP-ROCIS
   Kantharuban Sivalingam : CASSCF convergence, NEVPT2, FIC-MRCI
   Bernardo de Souza      : ESD, SOC TD-DFT
   Georgi Stoychev        : AutoAux, RI-MP2 NMR, DLPNO-MP2 response
   Willem Van den Heuvel  : Paramagnetic NMR
   Boris Wezisla          : Elementary symmetry handling
   Frank Wennmohs         : Technical directorship


 We gratefully acknowledge several colleagues who have allowed us to
 interface, adapt or use parts of their codes:
   Stefan Grimme, W. Hujo, H. Kruse, P. Pracht,  : VdW corrections, initial TS optimization,
                  C. Bannwarth, S. Ehlert          DFT functionals, gCP, sTDA/sTD-DF
   Ed Valeev, F. Pavosevic, A. Kumar             : LibInt (2-el integral package), F12 methods
   Garnet Chan, S. Sharma, J. Yang, R. Olivares  : DMRG
   Ulf Ekstrom                                   : XCFun DFT Library
   Mihaly Kallay                                 : mrcc  (arbitrary order and MRCC methods)
   Jiri Pittner, Ondrej Demel                    : Mk-CCSD
   Frank Weinhold                                : gennbo (NPA and NBO analysis)
   Christopher J. Cramer and Donald G. Truhlar   : smd solvation model
   Lars Goerigk                                  : TD-DFT with DH, B97 family of functionals
   V. Asgeirsson, H. Jonsson                     : NEB implementation
   FAccTs GmbH                                   : IRC, NEB, NEB-TS, DLPNO-Multilevel, CI-OPT
                                                   MM, QMMM, 2- and 3-layer-ONIOM, Crystal-QMMM,
                                                   LR-CPCM, SF, NACMEs, symmetry and pop. for TD-DFT,
                                                   nearIR, NL-DFT gradient (VV10), updates on ESD,
                                                   ML-optimized integration grids
   S Lehtola, MJT Oliveira, MAL Marques          : LibXC Library
   Liviu Ungur et al                             : ANISO software


 Your calculation uses the libint2 library for the computation of 2-el integrals
 For citations please refer to: http://libint.valeyev.net

 Your ORCA version has been built with support for libXC version: 5.1.0
 For citations please refer to: https://tddft.org/programs/libxc/

 This ORCA versions uses:
   CBLAS   interface :  Fast vector & matrix operations
   LAPACKE interface :  Fast linear algebra routines
   SCALAPACK package :  Parallel linear algebra routines
   Shared memory     :  Shared parallel matrices
   BLAS/LAPACK       :  OpenBLAS 0.3.15  USE64BITINT DYNAMIC_ARCH NO_AFFINITY SkylakeX SINGLE_THREADED
        Core in use  :  SkylakeX
   Copyright (c) 2011-2014, The OpenBLAS Project


Your calculation utilizes the atom-pairwise dispersion correction
with the Becke-Johnson damping scheme (D3BJ)
Cite in your paper:
S.Grimme, S.Ehrlich, L.Goerigk, J Comput Chem, (2011), 32, 1456–1465 
S.Grimme, J.Antony, S.Ehrlich and H.Krieg, J.Chem.Phys., 132, (2010), 154104 
   

================================================================================

----- Orbital basis set information -----
Your calculation utilizes the basis: def2-TZVP
   F. Weigend and R. Ahlrichs, Phys. Chem. Chem. Phys. 7, 3297 (2005).

----- AuxJ basis set information -----
Your calculation utilizes the auxiliary basis: def2/J
   F. Weigend, Phys. Chem. Chem. Phys. 8, 1057 (2006).

================================================================================
                                        WARNINGS
                       Please study these warnings very carefully!
================================================================================


INFO   : the flag for use of the SHARK integral package has been found!

================================================================================
                                       INPUT FILE
================================================================================
NAME = ox_gs_A_orca0049.inp
|  1> ! engrad PBE0 D3BJ def2-TZVP  
|  2> %pal nprocs 8 end
|  3> %maxcore 3000
|  4>  
|  5> *xyz 0 1 
|  6> O   -0.05113957825992028 0.7540554831288327 -0.08342909369387948
|  7> C   -0.708928433869736 -0.41466069301486297 -0.0241593231149687
|  8> C   0.8075888781645015 -0.508308773150117 -0.07321874401049101
|  9> H   -1.2526003390720013 -0.6159158948693922 1.0041726045728934
| 10> H   -1.286766983143447 -0.6143368683284353 -0.9219016434750353
| 11> H   1.2551914550029588 -0.6240878631256664 -0.887360076079329
| 12> H   1.1850032621507876 -0.5944437925137052 0.9889807377073726
| 13> *
| 14> 
| 15>                          ****END OF INPUT****
================================================================================

                     *******************************
                     * Energy+Gradient Calculation *
                     *******************************

---------------------------------
CARTESIAN COORDINATES (ANGSTROEM)
---------------------------------
  O     -0.051140    0.754055   -0.083429
  C     -0.708928   -0.414661   -0.024159
  C      0.807589   -0.508309   -0.073219
  H     -1.252600   -0.615916    1.004173
  H     -1.286767   -0.614337   -0.921902
  H      1.255191   -0.624088   -0.887360
  H      1.185003   -0.594444    0.988981

----------------------------
CARTESIAN COORDINATES (A.U.)
----------------------------
  NO LB      ZA    FRAG     MASS         X           Y           Z
   0 O     8.0000    0    15.999   -0.096640    1.424958   -0.157658
   1 C     6.0000    0    12.011   -1.339681   -0.783595   -0.045655
   2 C     6.0000    0    12.011    1.526122   -0.960564   -0.138363
   3 H     1.0000    0     1.008   -2.367072   -1.163912    1.897611
   4 H     1.0000    0     1.008   -2.431637   -1.160928   -1.742142
   5 H     1.0000    0     1.008    2.371968   -1.179355   -1.676868
   6 H     1.0000    0     1.008    2.239332   -1.123336    1.868903

--------------------------------
INTERNAL COORDINATES (ANGSTROEM)
--------------------------------
 O      0   0   0     0.000000000000     0.00000000     0.00000000
 C      1   0   0     1.342421910075     0.00000000     0.00000000
 C      2   1   0     1.520197864553    64.11229649     0.00000000
 H      2   1   3     1.180486912372   114.36543238   111.24194925
 H      2   1   3     1.086144206715   112.59678480   246.96837832
 H      3   2   1     0.936257962877   120.83710563   265.63335027
 H      3   2   1     1.130543496625   107.90254143    95.25756618

---------------------------
INTERNAL COORDINATES (A.U.)
---------------------------
 O      0   0   0     0.000000000000     0.00000000     0.00000000
 C      1   0   0     2.536809766217     0.00000000     0.00000000
 C      2   1   0     2.872757633377    64.11229649     0.00000000
 H      2   1   3     2.230796969062   114.36543238   111.24194925
 H      2   1   3     2.052515092636   112.59678480   246.96837832
 H      3   2   1     1.769271140541   120.83710563   265.63335027
 H      3   2   1     2.136417591108   107.90254143    95.25756618

---------------------
BASIS SET INFORMATION
---------------------
There are 3 groups of distinct atoms

 Group   1 Type O   : 11s6p2d1f contracted to 5s3p2d1f pattern {62111/411/11/1}
 Group   2 Type C   : 11s6p2d1f contracted to 5s3p2d1f pattern {62111/411/11/1}
 Group   3 Type H   : 5s1p contracted to 3s1p pattern {311/1}

Atom   0O    basis set group =>   1
Atom   1C    basis set group =>   2
Atom   2C    basis set group =>   2
Atom   3H    basis set group =>   3
Atom   4H    basis set group =>   3
Atom   5H    basis set group =>   3
Atom   6H    basis set group =>   3
---------------------------------
AUXILIARY/J BASIS SET INFORMATION
---------------------------------
There are 3 groups of distinct atoms

 Group   1 Type O   : 12s5p4d2f1g contracted to 6s4p3d1f1g pattern {711111/2111/211/2/1}
 Group   2 Type C   : 12s5p4d2f1g contracted to 6s4p3d1f1g pattern {711111/2111/211/2/1}
 Group   3 Type H   : 5s2p1d contracted to 3s1p1d pattern {311/2/1}

Atom   0O    basis set group =>   1
Atom   1C    basis set group =>   2
Atom   2C    basis set group =>   2
Atom   3H    basis set group =>   3
Atom   4H    basis set group =>   3
Atom   5H    basis set group =>   3
Atom   6H    basis set group =>   3


           ************************************************************
           *        Program running with 8 parallel MPI-processes     *
           *              working on a common directory               *
           ************************************************************
------------------------------------------------------------------------------
                           ORCA GTO INTEGRAL CALCULATION
                           -- RI-GTO INTEGRALS CHOSEN --
------------------------------------------------------------------------------
------------------------------------------------------------------------------
                   ___                                                        
                  /   \      - P O W E R E D   B Y -                         
                 /     \                                                     
                 |  |  |   _    _      __       _____    __    __             
                 |  |  |  | |  | |    /  \     |  _  \  |  |  /  |          
                  \  \/   | |  | |   /    \    | | | |  |  | /  /          
                 / \  \   | |__| |  /  /\  \   | |_| |  |  |/  /          
                |  |  |   |  __  | /  /__\  \  |    /   |      \           
                |  |  |   | |  | | |   __   |  |    \   |  |\   \          
                \     /   | |  | | |  |  |  |  | |\  \  |  | \   \       
                 \___/    |_|  |_| |__|  |__|  |_| \__\ |__|  \__/        
                                                                              
                      - O R C A' S   B I G   F R I E N D -                    
                                      &                                       
                       - I N T E G R A L  F E E D E R -                       
                                                                              
 v1 FN, 2020, v2 2021                                                         
------------------------------------------------------------------------------


Reading SHARK input file ox_gs_A_orca0049.SHARKINP.tmp ... ok
----------------------
SHARK INTEGRAL PACKAGE
----------------------

Number of atoms                             ...      7
Number of basis functions                   ...    117
Number of shells                            ...     49
Maximum angular momentum                    ...      3
Integral batch strategy                     ... SHARK/LIBINT Hybrid
RI-J (if used) integral strategy            ... SPLIT-RIJ (Revised 2003 algorithm where possible)
Printlevel                                  ...      1
Contraction scheme used                     ... SEGMENTED contraction
Coulomb Range Separation                    ... NOT USED
Exchange Range Separation                   ... NOT USED
Finite Nucleus Model                        ... NOT USED
Auxiliary Coulomb fitting basis             ... AVAILABLE
   # of basis functions in Aux-J            ...    191
   # of shells in Aux-J                     ...     65
   Maximum angular momentum in Aux-J        ...      4
Auxiliary J/K fitting basis                 ... NOT available
Auxiliary Correlation fitting basis         ... NOT available
Auxiliary 'external' fitting basis          ... NOT available
Integral threshold                          ...     2.500000e-11
Primitive cut-off                           ...     2.500000e-12
Primitive pair pre-selection threshold      ...     2.500000e-12

Calculating pre-screening integrals         ... done (  0.0 sec) Dimension = 49
Organizing shell pair data                  ... done (  0.0 sec)
Shell pair information
Total number of shell pairs                 ...      1225
Shell pairs after pre-screening             ...      1221
Total number of primitive shell pairs       ...      3648
Primitive shell pairs kept                  ...      3153
          la=0 lb=0:    374 shell pairs
          la=1 lb=0:    351 shell pairs
          la=1 lb=1:     91 shell pairs
          la=2 lb=0:    162 shell pairs
          la=2 lb=1:     78 shell pairs
          la=2 lb=2:     21 shell pairs
          la=3 lb=0:     81 shell pairs
          la=3 lb=1:     39 shell pairs
          la=3 lb=2:     18 shell pairs
          la=3 lb=3:      6 shell pairs

Calculating one electron integrals          ... done (  0.0 sec)
Calculating RI/J V-Matrix + Cholesky decomp.... done (  0.0 sec)
Calculating Nuclear repulsion               ... done (  0.0 sec) ENN=     75.069780453493 Eh

SHARK setup successfully completed in   0.1 seconds

Maximum memory used throughout the entire GTOINT-calculation: 14.9 MB


           ************************************************************
           *        Program running with 8 parallel MPI-processes     *
           *              working on a common directory               *
           ************************************************************
-------------------------------------------------------------------------------
                                 ORCA SCF
-------------------------------------------------------------------------------

------------
SCF SETTINGS
------------
Hamiltonian:
 Density Functional     Method          .... DFT(GTOs)
 Exchange Functional    Exchange        .... PBE
   PBE kappa parameter   XKappa         ....  0.804000
   PBE mue parameter    XMuePBE         ....  0.219520
 Correlation Functional Correlation     .... PBE
   PBE beta parameter  CBetaPBE         ....  0.066725
 LDA part of GGA corr.  LDAOpt          .... PW91-LDA
 Gradients option       PostSCFGGA      .... off
 Hybrid DFT is turned on
   Fraction HF Exchange ScalHFX         ....  0.250000
   Scaling of DF-GGA-X  ScalDFX         ....  0.750000
   Scaling of DF-GGA-C  ScalDFC         ....  1.000000
   Scaling of DF-LDA-C  ScalLDAC        ....  1.000000
   Perturbative correction              ....  0.000000
   Density functional embedding theory  .... OFF
   NL short-range parameter             ....  6.900000
 RI-approximation to the Coulomb term is turned on
   Number of AuxJ basis functions       .... 191
   RIJ-COSX (HFX calculated with COS-X)).... on


General Settings:
 Integral files         IntName         .... ox_gs_A_orca0049
 Hartree-Fock type      HFTyp           .... RHF
 Total Charge           Charge          ....    0
 Multiplicity           Mult            ....    1
 Number of Electrons    NEL             ....   24
 Basis Dimension        Dim             ....  117
 Nuclear Repulsion      ENuc            ....     75.0697804535 Eh

Convergence Acceleration:
 DIIS                   CNVDIIS         .... on
   Start iteration      DIISMaxIt       ....    12
   Startup error        DIISStart       ....  0.200000
   # of expansion vecs  DIISMaxEq       ....     5
   Bias factor          DIISBfac        ....   1.050
   Max. coefficient     DIISMaxC        ....  10.000
 Trust-Rad. Augm. Hess. CNVTRAH         .... auto
   Auto Start mean grad. ratio tolernc. ....  1.125000
   Auto Start start iteration           ....    20
   Auto Start num. interpolation iter.  ....    10
   Max. Number of Micro iterations      ....    16
   Max. Number of Macro iterations      .... Maxiter - #DIIS iter
   Number of Davidson start vectors     ....     2
   Converg. threshold I  (grad. norm)   ....   1.000e-05
   Converg. threshold II (energy diff.) ....   1.000e-08
   Grad. Scal. Fac. for Micro threshold ....   0.100
   Minimum threshold for Micro iter.    ....   0.010
   NR start threshold (gradient norm)   ....   0.001
   Initial trust radius                 ....   0.400
   Minimum AH scaling param. (alpha)    ....   1.000
   Maximum AH scaling param. (alpha)    .... 1000.000
   Orbital update algorithm             .... Taylor
   White noise on init. David. guess    .... on
   Maximum white noise                  ....   0.010
   Quad. conv. algorithm                .... NR
 SOSCF                  CNVSOSCF        .... on
   Start iteration      SOSCFMaxIt      ....   150
   Startup grad/error   SOSCFStart      ....  0.003300
 Level Shifting         CNVShift        .... on
   Level shift para.    LevelShift      ....    0.2500
   Turn off err/grad.   ShiftErr        ....    0.0010
 Zerner damping         CNVZerner       .... off
 Static damping         CNVDamp         .... on
   Fraction old density DampFac         ....    0.7000
   Max. Damping (<1)    DampMax         ....    0.9800
   Min. Damping (>=0)   DampMin         ....    0.0000
   Turn off err/grad.   DampErr         ....    0.1000
 Fernandez-Rico         CNVRico         .... off

SCF Procedure:
 Maximum # iterations   MaxIter         ....   125
 SCF integral mode      SCFMode         .... Direct
   Integral package                     .... SHARK and LIBINT hybrid scheme
 Reset frequency        DirectResetFreq ....    20
 Integral Threshold     Thresh          ....  2.500e-11 Eh
 Primitive CutOff       TCut            ....  2.500e-12 Eh

Convergence Tolerance:
 Convergence Check Mode ConvCheckMode   .... Total+1el-Energy
 Convergence forced     ConvForced      .... 0
 Energy Change          TolE            ....  1.000e-08 Eh
 1-El. energy change                    ....  1.000e-05 Eh
 Orbital Gradient       TolG            ....  1.000e-05
 Orbital Rotation angle TolX            ....  1.000e-05
 DIIS Error             TolErr          ....  5.000e-07


Diagonalization of the overlap matrix:
Smallest eigenvalue                        ... 5.303e-04
Time for diagonalization                   ...    0.001 sec
Threshold for overlap eigenvalues          ... 1.000e-08
Number of eigenvalues below threshold      ... 0
Time for construction of square roots      ...    0.001 sec
Total time needed                          ...    0.003 sec

Time for model grid setup =    0.022 sec

------------------------------
INITIAL GUESS: MODEL POTENTIAL
------------------------------
Loading Hartree-Fock densities                     ... done
Calculating cut-offs                               ... done
Initializing the effective Hamiltonian             ... done
Setting up the integral package (SHARK)            ... done
Starting the Coulomb interaction                   ... done (   0.0 sec)
Reading the grid                                   ... done
Mapping shells                                     ... done
Starting the XC term evaluation                    ... done (   0.0 sec)
  promolecular density results
     # of electrons  =     23.997610571
     EX              =    -19.538958064
     EC              =     -0.781170066
     EX+EC           =    -20.320128131
Transforming the Hamiltonian                       ... done (   0.0 sec)
Diagonalizing the Hamiltonian                      ... done (   0.0 sec)
Back transforming the eigenvectors                 ... done (   0.0 sec)
Now organizing SCF variables                       ... done
                      ------------------
                      INITIAL GUESS DONE (   0.0 sec)
                      ------------------
-------------------
DFT GRID GENERATION
-------------------

General Integration Accuracy     IntAcc      ... 4.388
Radial Grid Type                 RadialGrid  ... OptM3 with GC (2021)
Angular Grid (max. ang.)         AngularGrid ... 4 (Lebedev-302)
Angular grid pruning method      GridPruning ... 4 (adaptive)
Weight generation scheme         WeightScheme... Becke
Basis function cutoff            BFCut       ... 1.0000e-11
Integration weight cutoff        WCut        ... 1.0000e-14
Angular grids for H and He will be reduced by one unit
Partially contracted basis set               ... off
Rotationally invariant grid construction     ... off

Total number of grid points                  ...    31302
Total number of batches                      ...      493
Average number of points per batch           ...       63
Average number of grid points per atom       ...     4472
Time for grid setup =    0.112 sec

--------------------
COSX GRID GENERATION
--------------------

GRIDX 1
-------
General Integration Accuracy     IntAcc      ... 3.816
Radial Grid Type                 RadialGrid  ... OptM3 with GC (2021)
Angular Grid (max. ang.)         AngularGrid ... 1 (Lebedev-50)
Angular grid pruning method      GridPruning ... 4 (adaptive)
Weight generation scheme         WeightScheme... Becke
Basis function cutoff            BFCut       ... 1.0000e-11
Integration weight cutoff        WCut        ... 1.0000e-14
Angular grids for H and He will be reduced by one unit
Partially contracted basis set               ... on
Rotationally invariant grid construction     ... off

Total number of grid points                  ...     4035
Total number of batches                      ...       67
Average number of points per batch           ...       60
Average number of grid points per atom       ...      576
UseSFitting                                  ... on

GRIDX 2
-------
General Integration Accuracy     IntAcc      ... 4.020
Radial Grid Type                 RadialGrid  ... OptM3 with GC (2021)
Angular Grid (max. ang.)         AngularGrid ... 2 (Lebedev-110)
Angular grid pruning method      GridPruning ... 4 (adaptive)
Weight generation scheme         WeightScheme... Becke
Basis function cutoff            BFCut       ... 1.0000e-11
Integration weight cutoff        WCut        ... 1.0000e-14
Angular grids for H and He will be reduced by one unit
Partially contracted basis set               ... on
Rotationally invariant grid construction     ... off

Total number of grid points                  ...     8718
Total number of batches                      ...      139
Average number of points per batch           ...       62
Average number of grid points per atom       ...     1245
UseSFitting                                  ... on

GRIDX 3
-------
General Integration Accuracy     IntAcc      ... 4.338
Radial Grid Type                 RadialGrid  ... OptM3 with GC (2021)
Angular Grid (max. ang.)         AngularGrid ... 3 (Lebedev-194)
Angular grid pruning method      GridPruning ... 4 (adaptive)
Weight generation scheme         WeightScheme... Becke
Basis function cutoff            BFCut       ... 1.0000e-11
Integration weight cutoff        WCut        ... 1.0000e-14
Angular grids for H and He will be reduced by one unit
Partially contracted basis set               ... on
Rotationally invariant grid construction     ... off

Total number of grid points                  ...    19242
Total number of batches                      ...      304
Average number of points per batch           ...       63
Average number of grid points per atom       ...     2749
UseSFitting                                  ... on

Time for X-Grid setup             =    0.073 sec

--------------
SCF ITERATIONS
--------------
ITER       Energy         Delta-E        Max-DP      RMS-DP      [F,P]     Damp
               ***  Starting incremental Fock matrix formation  ***
  0   -153.5709119109   0.000000000000 0.03458079  0.00117539  0.1806366 0.7000
  1   -153.6004865613  -0.029574650407 0.01863513  0.00086192  0.0751955 0.7000
                               ***Turning on DIIS***
  2   -153.6124910113  -0.012004449983 0.02805310  0.00144852  0.0348931 0.0000
  3   -153.6321357495  -0.019644738150 0.01464471  0.00065354  0.0407352 0.0000
  4   -153.6358251392  -0.003689389689 0.00396542  0.00018482  0.0089519 0.0000
  5   -153.6360311533  -0.000206014179 0.00150393  0.00006184  0.0036692 0.0000
                      *** Initiating the SOSCF procedure ***
                           *** Shutting down DIIS ***
                      *** Re-Reading the Fockian *** 
                      *** Removing any level shift *** 
ITER      Energy       Delta-E        Grad      Rot      Max-DP    RMS-DP
  6   -153.63605475  -0.0000235982  0.000106  0.000106  0.001057  0.000030
               *** Restarting incremental Fock matrix formation ***
  7   -153.63604060   0.0000141515  0.000067  0.000141  0.000123  0.000006
  8   -153.63604052   0.0000000847  0.000120  0.000103  0.000082  0.000004
  9   -153.63604067  -0.0000001530  0.000010  0.000014  0.000024  0.000001
 10   -153.63604067   0.0000000014  0.000012  0.000008  0.000015  0.000000
                  ***Gradient check signals convergence***
              ***Rediagonalizing the Fockian in SOSCF/NRSCF***

               *****************************************************
               *                     SUCCESS                       *
               *           SCF CONVERGED AFTER  11 CYCLES          *
               *****************************************************

Old exchange energy                            =     -4.995992423 Eh
New exchange energy                            =     -4.995986697 Eh
Exchange energy change after final integration =      0.000005726 Eh
Total energy after final integration           =   -153.636034945 Eh
Final COS-X integration done in                =     0.268 sec

----------------
TOTAL SCF ENERGY
----------------

Total Energy       :         -153.63603494 Eh           -4180.64905 eV

Components:
Nuclear Repulsion  :           75.06978045 Eh            2042.75258 eV
Electronic Energy  :         -228.70581540 Eh           -6223.40163 eV
One Electron Energy:         -356.75562923 Eh           -9707.81421 eV
Two Electron Energy:          128.04981384 Eh            3484.41258 eV
Max COSX asymmetry :            0.00000169 Eh               0.00005 eV

Virial components:
Potential Energy   :         -306.65953915 Eh           -8344.63029 eV
Kinetic Energy     :          153.02350420 Eh            4163.98124 eV
Virial Ratio       :            2.00400285


DFT components:
N(Alpha)           :       12.000002183397 electrons
N(Beta)            :       12.000002183397 electrons
N(Total)           :       24.000004366793 electrons
E(X)               :      -14.960827693824 Eh       
E(C)               :       -0.789308239280 Eh       
E(XC)              :      -15.750135933104 Eh       
DFET-embed. en.    :        0.000000000000 Eh       

---------------
SCF CONVERGENCE
---------------

  Last Energy change         ...   -3.4729e-09  Tolerance :   1.0000e-08
  Last MAX-Density change    ...    8.8818e-16  Tolerance :   1.0000e-07
  Last RMS-Density change    ...    1.8187e-17  Tolerance :   5.0000e-09
  Last Orbital Gradient      ...    8.8243e-07  Tolerance :   1.0000e-05
  Last Orbital Rotation      ...    1.2924e-06  Tolerance :   1.0000e-05

             **** THE GBW FILE WAS UPDATED (ox_gs_A_orca0049.gbw) ****
             **** DENSITY ox_gs_A_orca0049.scfp WAS UPDATED ****
             **** ENERGY FILE WAS UPDATED (ox_gs_A_orca0049.en.tmp) ****
             **** THE GBW FILE WAS UPDATED (ox_gs_A_orca0049.gbw) ****
             **** DENSITY ox_gs_A_orca0049.scfp WAS UPDATED ****
----------------
ORBITAL ENERGIES
----------------

  NO   OCC          E(Eh)            E(eV) 
   0   2.0000     -19.218922      -522.9735 
   1   2.0000     -10.284084      -279.8442 
   2   2.0000     -10.273809      -279.5646 
   3   2.0000      -1.105350       -30.0781 
   4   2.0000      -0.708236       -19.2721 
   5   2.0000      -0.649115       -17.6633 
   6   2.0000      -0.545277       -14.8378 
   7   2.0000      -0.489150       -13.3104 
   8   2.0000      -0.424584       -11.5535 
   9   2.0000      -0.403554       -10.9813 
  10   2.0000      -0.319470        -8.6932 
  11   2.0000      -0.284254        -7.7349 
  12   0.0000       0.052620         1.4319 
  13   0.0000       0.057347         1.5605 
  14   0.0000       0.083051         2.2599 
  15   0.0000       0.102928         2.8008 
  16   0.0000       0.114339         3.1113 
  17   0.0000       0.148450         4.0395 
  18   0.0000       0.189074         5.1450 
  19   0.0000       0.197581         5.3764 
  20   0.0000       0.262366         7.1393 
  21   0.0000       0.269953         7.3458 
  22   0.0000       0.303177         8.2499 
  23   0.0000       0.334436         9.1005 
  24   0.0000       0.387751        10.5512 
  25   0.0000       0.398517        10.8442 
  26   0.0000       0.417900        11.3716 
  27   0.0000       0.436251        11.8710 
  28   0.0000       0.454078        12.3561 
  29   0.0000       0.466575        12.6962 
  30   0.0000       0.479507        13.0480 
  31   0.0000       0.518892        14.1198 
  32   0.0000       0.570916        15.5354 
  33   0.0000       0.692335        18.8394 
  34   0.0000       0.704568        19.1723 
  35   0.0000       0.734890        19.9974 
  36   0.0000       0.829975        22.5848 
  37   0.0000       0.834161        22.6987 
  38   0.0000       0.900992        24.5172 
  39   0.0000       0.909483        24.7483 
  40   0.0000       1.011135        27.5144 
  41   0.0000       1.027289        27.9540 
  42   0.0000       1.045985        28.4627 
  43   0.0000       1.078168        29.3385 
  44   0.0000       1.175160        31.9777 
  45   0.0000       1.348890        36.7052 
  46   0.0000       1.446545        39.3625 
  47   0.0000       1.493642        40.6441 
  48   0.0000       1.509131        41.0656 
  49   0.0000       1.539763        41.8991 
  50   0.0000       1.601137        43.5692 
  51   0.0000       1.616470        43.9864 
  52   0.0000       1.661329        45.2071 
  53   0.0000       1.692143        46.0456 
  54   0.0000       1.785221        48.5783 
  55   0.0000       1.802192        49.0401 
  56   0.0000       1.830998        49.8240 
  57   0.0000       1.868866        50.8544 
  58   0.0000       1.941038        52.8183 
  59   0.0000       1.988893        54.1205 
  60   0.0000       2.112331        57.4795 
  61   0.0000       2.164695        58.9043 
  62   0.0000       2.203266        59.9539 
  63   0.0000       2.226855        60.5958 
  64   0.0000       2.279221        62.0208 
  65   0.0000       2.407277        65.5053 
  66   0.0000       2.446561        66.5743 
  67   0.0000       2.468224        67.1638 
  68   0.0000       2.524406        68.6926 
  69   0.0000       2.598808        70.7172 
  70   0.0000       2.619442        71.2786 
  71   0.0000       2.665891        72.5426 
  72   0.0000       2.701563        73.5133 
  73   0.0000       2.730718        74.3066 
  74   0.0000       2.762500        75.1714 
  75   0.0000       2.871184        78.1289 
  76   0.0000       2.954800        80.4042 
  77   0.0000       2.970380        80.8282 
  78   0.0000       2.987348        81.2899 
  79   0.0000       3.038050        82.6695 
  80   0.0000       3.056516        83.1720 
  81   0.0000       3.071027        83.5669 
  82   0.0000       3.168819        86.2280 
  83   0.0000       3.229117        87.8687 
  84   0.0000       3.285067        89.3912 
  85   0.0000       3.318479        90.3004 
  86   0.0000       3.369418        91.6865 
  87   0.0000       3.401368        92.5559 
  88   0.0000       3.564530        96.9958 
  89   0.0000       3.588650        97.6521 
  90   0.0000       3.622837        98.5824 
  91   0.0000       3.725466       101.3751 
  92   0.0000       3.831613       104.2635 
  93   0.0000       3.955441       107.6330 
  94   0.0000       3.995863       108.7330 
  95   0.0000       4.015389       109.2643 
  96   0.0000       4.201818       114.3373 
  97   0.0000       4.327267       117.7509 
  98   0.0000       4.370804       118.9356 
  99   0.0000       4.620435       125.7284 
 100   0.0000       4.717112       128.3591 
 101   0.0000       4.888692       133.0281 
 102   0.0000       5.331821       145.0862 
 103   0.0000       5.426646       147.6666 
 104   0.0000       5.597776       152.3232 
 105   0.0000       5.806866       158.0129 
 106   0.0000       5.851907       159.2385 
 107   0.0000       5.895631       160.4283 
 108   0.0000       6.094815       165.8483 
 109   0.0000       6.629037       180.3853 
 110   0.0000       6.641952       180.7367 
 111   0.0000       6.817000       185.5000 
 112   0.0000       6.966831       189.5771 
 113   0.0000       7.191287       195.6849 
 114   0.0000      22.303155       606.8997 
 115   0.0000      22.389875       609.2595 
 116   0.0000      43.863168      1193.5775 

                    ********************************
                    * MULLIKEN POPULATION ANALYSIS *
                    ********************************

-----------------------
MULLIKEN ATOMIC CHARGES
-----------------------
   0 O :   -0.308071
   1 C :   -0.030190
   2 C :   -0.142727
   3 H :    0.096051
   4 H :    0.104087
   5 H :    0.142867
   6 H :    0.137982
Sum of atomic charges:   -0.0000000

--------------------------------
MULLIKEN REDUCED ORBITAL CHARGES
--------------------------------
  0 O s       :     3.852026  s :     3.852026
      pz      :     1.838369  p :     4.411284
      px      :     1.300988
      py      :     1.271927
      dz2     :     0.005467  d :     0.042602
      dxz     :     0.002907
      dyz     :     0.006701
      dx2y2   :     0.012176
      dxy     :     0.015351
      f0      :     0.000261  f :     0.002159
      f+1     :     0.000200
      f-1     :     0.000451
      f+2     :     0.000082
      f-2     :     0.000226
      f+3     :     0.000358
      f-3     :     0.000580
  1 C s       :     3.224599  s :     3.224599
      pz      :     1.025225  p :     2.664284
      px      :     0.872828
      py      :     0.766230
      dz2     :     0.006428  d :     0.128292
      dxz     :     0.029050
      dyz     :     0.036865
      dx2y2   :     0.033286
      dxy     :     0.022662
      f0      :     0.001838  f :     0.013015
      f+1     :     0.001505
      f-1     :     0.000713
      f+2     :     0.001556
      f-2     :     0.001873
      f+3     :     0.002087
      f-3     :     0.003443
  2 C s       :     3.251667  s :     3.251667
      pz      :     1.059012  p :     2.786946
      px      :     0.910155
      py      :     0.817778
      dz2     :     0.011282  d :     0.094021
      dxz     :     0.021389
      dyz     :     0.021689
      dx2y2   :     0.022796
      dxy     :     0.016865
      f0      :     0.001715  f :     0.010092
      f+1     :     0.001390
      f-1     :     0.000314
      f+2     :     0.000902
      f-2     :     0.001361
      f+3     :     0.002112
      f-3     :     0.002299
  3 H s       :     0.886221  s :     0.886221
      pz      :     0.010088  p :     0.017728
      px      :     0.004880
      py      :     0.002760
  4 H s       :     0.874506  s :     0.874506
      pz      :     0.010578  p :     0.021406
      px      :     0.006773
      py      :     0.004055
  5 H s       :     0.831380  s :     0.831380
      pz      :     0.011496  p :     0.025753
      px      :     0.007714
      py      :     0.006543
  6 H s       :     0.841413  s :     0.841413
      pz      :     0.012446  p :     0.020605
      px      :     0.004325
      py      :     0.003834


                     *******************************
                     * LOEWDIN POPULATION ANALYSIS *
                     *******************************

----------------------
LOEWDIN ATOMIC CHARGES
----------------------
   0 O :    0.122473
   1 C :   -0.378765
   2 C :   -0.187623
   3 H :    0.124384
   4 H :    0.109498
   5 H :    0.067964
   6 H :    0.142068

-------------------------------
LOEWDIN REDUCED ORBITAL CHARGES
-------------------------------
  0 O s       :     3.379033  s :     3.379033
      pz      :     1.719563  p :     4.394767
      px      :     1.289333
      py      :     1.385871
      dz2     :     0.011377  d :     0.096725
      dxz     :     0.008594
      dyz     :     0.016096
      dx2y2   :     0.033138
      dxy     :     0.027520
      f0      :     0.000689  f :     0.007002
      f+1     :     0.000294
      f-1     :     0.000872
      f+2     :     0.000215
      f-2     :     0.001071
      f+3     :     0.001282
      f-3     :     0.002579
  1 C s       :     2.839931  s :     2.839931
      pz      :     1.039735  p :     2.905973
      px      :     0.998323
      py      :     0.867915
      dz2     :     0.059669  d :     0.545450
      dxz     :     0.135895
      dyz     :     0.108923
      dx2y2   :     0.125337
      dxy     :     0.115627
      f0      :     0.012657  f :     0.087410
      f+1     :     0.006016
      f-1     :     0.006594
      f+2     :     0.010418
      f-2     :     0.009802
      f+3     :     0.016679
      f-3     :     0.025244
  2 C s       :     2.842457  s :     2.842457
      pz      :     1.068764  p :     2.924271
      px      :     1.020392
      py      :     0.835114
      dz2     :     0.060613  d :     0.365760
      dxz     :     0.098441
      dyz     :     0.052368
      dx2y2   :     0.080320
      dxy     :     0.074017
      f0      :     0.009382  f :     0.055136
      f+1     :     0.005351
      f-1     :     0.004254
      f+2     :     0.005189
      f-2     :     0.004894
      f+3     :     0.012066
      f-3     :     0.013999
  3 H s       :     0.827706  s :     0.827706
      pz      :     0.028234  p :     0.047910
      px      :     0.012248
      py      :     0.007429
  4 H s       :     0.828745  s :     0.828745
      pz      :     0.031893  p :     0.061757
      px      :     0.018159
      py      :     0.011705
  5 H s       :     0.839446  s :     0.839446
      pz      :     0.043248  p :     0.092590
      px      :     0.026608
      py      :     0.022734
  6 H s       :     0.801242  s :     0.801242
      pz      :     0.034137  p :     0.056690
      px      :     0.011917
      py      :     0.010636


                      *****************************
                      * MAYER POPULATION ANALYSIS *
                      *****************************

  NA   - Mulliken gross atomic population
  ZA   - Total nuclear charge
  QA   - Mulliken gross atomic charge
  VA   - Mayer's total valence
  BVA  - Mayer's bonded valence
  FA   - Mayer's free valence

  ATOM       NA         ZA         QA         VA         BVA        FA
  0 O      8.3081     8.0000    -0.3081     1.9824     1.9824    -0.0000
  1 C      6.0302     6.0000    -0.0302     3.9854     3.9854     0.0000
  2 C      6.1427     6.0000    -0.1427     3.9430     3.9430     0.0000
  3 H      0.9039     1.0000     0.0961     0.9599     0.9599     0.0000
  4 H      0.8959     1.0000     0.1041     0.9592     0.9592     0.0000
  5 H      0.8571     1.0000     0.1429     0.9674     0.9674    -0.0000
  6 H      0.8620     1.0000     0.1380     0.9672     0.9672    -0.0000

  Mayer bond orders larger than 0.100000
B(  0-O ,  1-C ) :   1.0370 B(  0-O ,  2-C ) :   0.9337 B(  1-C ,  2-C ) :   1.0553 
B(  1-C ,  3-H ) :   0.9355 B(  1-C ,  4-H ) :   0.9530 B(  2-C ,  5-H ) :   0.9661 
B(  2-C ,  6-H ) :   0.9617 

-------
TIMINGS
-------

Total SCF time: 0 days 0 hours 0 min 2 sec 

Total time                  ....       2.616 sec
Sum of individual times     ....       2.422 sec  ( 92.6%)

Fock matrix formation       ....       2.152 sec  ( 82.3%)
  Split-RI-J                ....       0.249 sec  ( 11.6% of F)
  Chain of spheres X        ....       1.472 sec  ( 68.4% of F)
  XC integration            ....       0.410 sec  ( 19.0% of F)
    Basis function eval.    ....       0.108 sec  ( 26.3% of XC)
    Density eval.           ....       0.081 sec  ( 19.8% of XC)
    XC-Functional eval.     ....       0.023 sec  (  5.7% of XC)
    XC-Potential eval.      ....       0.141 sec  ( 34.4% of XC)
Diagonalization             ....       0.017 sec  (  0.6%)
Density matrix formation    ....       0.001 sec  (  0.1%)
Population analysis         ....       0.002 sec  (  0.1%)
Initial guess               ....       0.018 sec  (  0.7%)
Orbital Transformation      ....       0.000 sec  (  0.0%)
Orbital Orthonormalization  ....       0.000 sec  (  0.0%)
DIIS solution               ....       0.013 sec  (  0.5%)
SOSCF solution              ....       0.011 sec  (  0.4%)
Grid generation             ....       0.207 sec  (  7.9%)

Maximum memory used throughout the entire SCF-calculation: 61.1 MB


-------------------------------------------------------------------------------
                          DFT DISPERSION CORRECTION                            
                                                                               
                              DFTD3 V3.1  Rev 1                                
                          USING Becke-Johnson damping                          
-------------------------------------------------------------------------------
The PBE0 functional is recognized
Active option DFTDOPT                   ...         4   

molecular C6(AA) [au] = 351.275750 


            DFT-D V3
 parameters
 s6 scaling factor         :     1.0000 
 a1 scaling factor         :     0.4145 
 s8 scaling factor         :     1.2177 
 a2 scaling factor         :     4.8593 
 ad hoc parameters k1-k3   :    16.0000     1.3333    -4.0000 

 Edisp/kcal,au: -1.512677630055  -0.002410604989 
 E6   /kcal   :  -0.991947212 
 E8   /kcal   :  -0.520730418 
 % E8         :  34.424414555 

-------------------------   ----------------
Dispersion correction           -0.002410605
-------------------------   ----------------


-------------------------   --------------------
FINAL SINGLE POINT ENERGY      -153.638445549553
-------------------------   --------------------



           ************************************************************
           *        Program running with 8 parallel MPI-processes     *
           *              working on a common directory               *
           ************************************************************
------------------------------------------------------------------------------
                         ORCA SCF GRADIENT CALCULATION
------------------------------------------------------------------------------

 ... reading COSX grid (gridx3)
Gradient of the Kohn-Sham DFT energy:
Kohn-Sham wavefunction type      ... RKS
Hartree-Fock exchange scaling    ...    0.250
Number of operators              ...    1
Number of atoms                  ...    7
Basis set dimensions             ...  117
Integral neglect threshold       ... 2.5e-11
Integral primitive cutoff        ... 2.5e-12
SHARK Integral package           ... ON

Nuc. rep. gradient       (SHARK) ... done (  0.0 sec)
HCore & Overlap gradient (SHARK) ... done (  0.0 sec)
RI-J gradient            (SHARK) ... done (  0.1 sec)
COSX-gradient                    ... done (  0.3 sec)
Exchange-correlation gradient    ... done
Dispersion correction            ... done

------------------
CARTESIAN GRADIENT
------------------

   1   O   :   -0.042044028   -0.010137867    0.001704393
   2   C   :    0.011880985    0.029058365   -0.029465555
   3   C   :    0.131601192   -0.056314312   -0.176206426
   4   H   :   -0.019412868   -0.000982897    0.040093029
   5   H   :    0.004183855    0.009468056   -0.001002118
   6   H   :   -0.079361024    0.024327762    0.129153766
   7   H   :   -0.006832294    0.004469114    0.035609390

Difference to translation invariance:
           :    0.0000158196   -0.0001117788   -0.0001135217

Difference to rotation invariance:
           :   -0.0003070452    0.0000386546   -0.0002507177

Norm of the cartesian gradient     ...    0.2868184892
RMS gradient                       ...    0.0625889256
MAX gradient                       ...    0.1762064265

-------
TIMINGS
-------

Total SCF gradient time            ...        0.778 sec

One electron gradient       ....       0.010 sec  (  1.3%)
RI-J Coulomb gradient       ....       0.077 sec  ( 10.0%)
COSX gradient               ....       0.331 sec  ( 42.6%)
XC gradient                 ....       0.210 sec  ( 27.0%)

Maximum memory used throughout the entire SCFGRAD-calculation: 35.9 MB

                            ***************************************
                            *     ORCA property calculations      *
                            ***************************************

                                    ---------------------
                                    Active property flags
                                    ---------------------
   (+) Dipole Moment


------------------------------------------------------------------------------
                       ORCA ELECTRIC PROPERTIES CALCULATION
------------------------------------------------------------------------------

Dipole Moment Calculation                       ... on
Quadrupole Moment Calculation                   ... off
Polarizability Calculation                      ... off
GBWName                                         ... ox_gs_A_orca0049.gbw
Electron density                                ... ox_gs_A_orca0049.scfp
The origin for moment calculation is the CENTER OF MASS  = ( 0.011448, -0.063917 -0.099479)

-------------
DIPOLE MOMENT
-------------
                                X             Y             Z
Electronic contribution:      0.20257       1.48532      -0.37184
Nuclear contribution   :     -0.11662      -2.15881       0.36962
                        -----------------------------------------
Total Dipole Moment    :      0.08595      -0.67349      -0.00223
                        -----------------------------------------
Magnitude (a.u.)       :      0.67896
Magnitude (Debye)      :      1.72577



--------------------
Rotational spectrum 
--------------------
 
Rotational constants in cm-1:     0.900795     0.686495     0.469062 
Rotational constants in MHz : 27005.152193 20580.601873 14062.116801 

 Dipole components along the rotational axes: 
x,y,z [a.u.] :     0.315844    -0.599904    -0.036630 
x,y,z [Debye]:     0.802812    -1.524835    -0.093106 

 

Timings for individual modules:

Sum of individual times         ...        4.124 sec (=   0.069 min)
GTO integral calculation        ...        0.293 sec (=   0.005 min)   7.1 %
SCF iterations                  ...        2.809 sec (=   0.047 min)  68.1 %
SCF Gradient evaluation         ...        1.021 sec (=   0.017 min)  24.8 %
                             ****ORCA TERMINATED NORMALLY****
TOTAL RUN TIME: 0 days 0 hours 0 minutes 4 seconds 725 msec
