
                                 *****************
                                 * O   R   C   A *
                                 *****************

                                            #,                                       
                                            ###                                      
                                            ####                                     
                                            #####                                    
                                            ######                                   
                                           ########,                                 
                                     ,,################,,,,,                         
                               ,,#################################,,                 
                          ,,##########################################,,             
                       ,#########################################, ''#####,          
                    ,#############################################,,   '####,        
                  ,##################################################,,,,####,       
                ,###########''''           ''''###############################       
              ,#####''   ,,,,##########,,,,          '''####'''          '####       
            ,##' ,,,,###########################,,,                        '##       
           ' ,,###''''                  '''############,,,                           
         ,,##''                                '''############,,,,        ,,,,,,###''
      ,#''                                            '''#######################'''  
     '                                                          ''''####''''         
             ,#######,   #######,   ,#######,      ##                                
            ,#'     '#,  ##    ##  ,#'     '#,    #''#        ######   ,####,        
            ##       ##  ##   ,#'  ##            #'  '#       #        #'  '#        
            ##       ##  #######   ##           ,######,      #####,   #    #        
            '#,     ,#'  ##    ##  '#,     ,#' ,#      #,         ##   #,  ,#        
             '#######'   ##     ##  '#######'  #'      '#     #####' # '####'        



                  #######################################################
                  #                        -***-                        #
                  #          Department of theory and spectroscopy      #
                  #    Directorship and core code : Frank Neese         #
                  #        Max Planck Institute fuer Kohlenforschung    #
                  #                Kaiser Wilhelm Platz 1               #
                  #                 D-45470 Muelheim/Ruhr               #
                  #                      Germany                        #
                  #                                                     #
                  #                  All rights reserved                #
                  #                        -***-                        #
                  #######################################################


                         Program Version 5.0.2 -  RELEASE  -


 With contributions from (in alphabetic order):
   Daniel Aravena         : Magnetic Suceptibility
   Michael Atanasov       : Ab Initio Ligand Field Theory (pilot matlab implementation)
   Alexander A. Auer      : GIAO ZORA, VPT2 properties, NMR spectrum
   Ute Becker             : Parallelization
   Giovanni Bistoni       : ED, misc. LED, open-shell LED, HFLD
   Martin Brehm           : Molecular dynamics
   Dmytro Bykov           : SCF Hessian
   Vijay G. Chilkuri      : MRCI spin determinant printing, contributions to CSF-ICE
   Dipayan Datta          : RHF DLPNO-CCSD density
   Achintya Kumar Dutta   : EOM-CC, STEOM-CC
   Dmitry Ganyushin       : Spin-Orbit,Spin-Spin,Magnetic field MRCI
   Miquel Garcia          : C-PCM and meta-GGA Hessian, CC/C-PCM, Gaussian charge scheme
   Yang Guo               : DLPNO-NEVPT2, F12-NEVPT2, CIM, IAO-localization
   Andreas Hansen         : Spin unrestricted coupled pair/coupled cluster methods
   Benjamin Helmich-Paris : MC-RPA, TRAH-SCF, COSX integrals
   Lee Huntington         : MR-EOM, pCC
   Robert Izsak           : Overlap fitted RIJCOSX, COSX-SCS-MP3, EOM
   Marcus Kettner         : VPT2
   Christian Kollmar      : KDIIS, OOCD, Brueckner-CCSD(T), CCSD density, CASPT2, CASPT2-K
   Simone Kossmann        : Meta GGA functionals, TD-DFT gradient, OOMP2, MP2 Hessian
   Martin Krupicka        : Initial AUTO-CI
   Lucas Lang             : DCDCAS
   Marvin Lechner         : AUTO-CI (C++ implementation), FIC-MRCC
   Dagmar Lenk            : GEPOL surface, SMD
   Dimitrios Liakos       : Extrapolation schemes; Compound Job, initial MDCI parallelization
   Dimitrios Manganas     : Further ROCIS development; embedding schemes
   Dimitrios Pantazis     : SARC Basis sets
   Anastasios Papadopoulos: AUTO-CI, single reference methods and gradients
   Taras Petrenko         : DFT Hessian,TD-DFT gradient, ASA, ECA, R-Raman, ABS, FL, XAS/XES, NRVS
   Peter Pinski           : DLPNO-MP2, DLPNO-MP2 Gradient
   Christoph Reimann      : Effective Core Potentials
   Marius Retegan         : Local ZFS, SOC
   Christoph Riplinger    : Optimizer, TS searches, QM/MM, DLPNO-CCSD(T), (RO)-DLPNO pert. Triples
   Tobias Risthaus        : Range-separated hybrids, TD-DFT gradient, RPA, STAB
   Michael Roemelt        : Original ROCIS implementation
   Masaaki Saitow         : Open-shell DLPNO-CCSD energy and density
   Barbara Sandhoefer     : DKH picture change effects
   Avijit Sen             : IP-ROCIS
   Kantharuban Sivalingam : CASSCF convergence, NEVPT2, FIC-MRCI
   Bernardo de Souza      : ESD, SOC TD-DFT
   Georgi Stoychev        : AutoAux, RI-MP2 NMR, DLPNO-MP2 response
   Willem Van den Heuvel  : Paramagnetic NMR
   Boris Wezisla          : Elementary symmetry handling
   Frank Wennmohs         : Technical directorship


 We gratefully acknowledge several colleagues who have allowed us to
 interface, adapt or use parts of their codes:
   Stefan Grimme, W. Hujo, H. Kruse, P. Pracht,  : VdW corrections, initial TS optimization,
                  C. Bannwarth, S. Ehlert          DFT functionals, gCP, sTDA/sTD-DF
   Ed Valeev, F. Pavosevic, A. Kumar             : LibInt (2-el integral package), F12 methods
   Garnet Chan, S. Sharma, J. Yang, R. Olivares  : DMRG
   Ulf Ekstrom                                   : XCFun DFT Library
   Mihaly Kallay                                 : mrcc  (arbitrary order and MRCC methods)
   Jiri Pittner, Ondrej Demel                    : Mk-CCSD
   Frank Weinhold                                : gennbo (NPA and NBO analysis)
   Christopher J. Cramer and Donald G. Truhlar   : smd solvation model
   Lars Goerigk                                  : TD-DFT with DH, B97 family of functionals
   V. Asgeirsson, H. Jonsson                     : NEB implementation
   FAccTs GmbH                                   : IRC, NEB, NEB-TS, DLPNO-Multilevel, CI-OPT
                                                   MM, QMMM, 2- and 3-layer-ONIOM, Crystal-QMMM,
                                                   LR-CPCM, SF, NACMEs, symmetry and pop. for TD-DFT,
                                                   nearIR, NL-DFT gradient (VV10), updates on ESD,
                                                   ML-optimized integration grids
   S Lehtola, MJT Oliveira, MAL Marques          : LibXC Library
   Liviu Ungur et al                             : ANISO software


 Your calculation uses the libint2 library for the computation of 2-el integrals
 For citations please refer to: http://libint.valeyev.net

 Your ORCA version has been built with support for libXC version: 5.1.0
 For citations please refer to: https://tddft.org/programs/libxc/

 This ORCA versions uses:
   CBLAS   interface :  Fast vector & matrix operations
   LAPACKE interface :  Fast linear algebra routines
   SCALAPACK package :  Parallel linear algebra routines
   Shared memory     :  Shared parallel matrices
   BLAS/LAPACK       :  OpenBLAS 0.3.15  USE64BITINT DYNAMIC_ARCH NO_AFFINITY SkylakeX SINGLE_THREADED
        Core in use  :  SkylakeX
   Copyright (c) 2011-2014, The OpenBLAS Project


Your calculation utilizes the atom-pairwise dispersion correction
with the Becke-Johnson damping scheme (D3BJ)
Cite in your paper:
S.Grimme, S.Ehrlich, L.Goerigk, J Comput Chem, (2011), 32, 1456–1465 
S.Grimme, J.Antony, S.Ehrlich and H.Krieg, J.Chem.Phys., 132, (2010), 154104 
   

================================================================================

----- Orbital basis set information -----
Your calculation utilizes the basis: def2-TZVP
   F. Weigend and R. Ahlrichs, Phys. Chem. Chem. Phys. 7, 3297 (2005).

----- AuxJ basis set information -----
Your calculation utilizes the auxiliary basis: def2/J
   F. Weigend, Phys. Chem. Chem. Phys. 8, 1057 (2006).

================================================================================
                                        WARNINGS
                       Please study these warnings very carefully!
================================================================================


INFO   : the flag for use of the SHARK integral package has been found!

================================================================================
                                       INPUT FILE
================================================================================
NAME = ox_gs_A_orca0027.inp
|  1> ! engrad PBE0 D3BJ def2-TZVP  
|  2> %pal nprocs 8 end
|  3> %maxcore 3000
|  4>  
|  5> *xyz 0 1 
|  6> O   -0.05040426554587021 0.6733847139487072 -0.017575564202065432
|  7> C   -0.7279686710405224 -0.36319862438623585 0.016346368688208133
|  8> C   0.7179345135595567 -0.40555021094082555 -0.11055676545039426
|  9> H   -1.2520422020945716 -0.6297275503056516 0.846046907711008
| 10> H   -1.2066350678396536 -0.6513460896252794 -0.9407406156950401
| 11> H   1.2954619133053142 -0.5547362171097803 -0.9108829072470752
| 12> H   1.2762338993150169 -0.6912388549770122 0.8774839515267604
| 13> *
| 14> 
| 15>                          ****END OF INPUT****
================================================================================

                     *******************************
                     * Energy+Gradient Calculation *
                     *******************************

---------------------------------
CARTESIAN COORDINATES (ANGSTROEM)
---------------------------------
  O     -0.050404    0.673385   -0.017576
  C     -0.727969   -0.363199    0.016346
  C      0.717935   -0.405550   -0.110557
  H     -1.252042   -0.629728    0.846047
  H     -1.206635   -0.651346   -0.940741
  H      1.295462   -0.554736   -0.910883
  H      1.276234   -0.691239    0.877484

----------------------------
CARTESIAN COORDINATES (A.U.)
----------------------------
  NO LB      ZA    FRAG     MASS         X           Y           Z
   0 O     8.0000    0    15.999   -0.095250    1.272513   -0.033213
   1 C     6.0000    0    12.011   -1.375661   -0.686346    0.030890
   2 C     6.0000    0    12.011    1.356700   -0.766379   -0.208922
   3 H     1.0000    0     1.008   -2.366017   -1.190013    1.598797
   4 H     1.0000    0     1.008   -2.280210   -1.230866   -1.777742
   5 H     1.0000    0     1.008    2.448068   -1.048300   -1.721319
   6 H     1.0000    0     1.008    2.411733   -1.306252    1.658204

--------------------------------
INTERNAL COORDINATES (ANGSTROEM)
--------------------------------
 O      0   0   0     0.000000000000     0.00000000     0.00000000
 C      1   0   0     1.238849966073     0.00000000     0.00000000
 C      1   2   0     1.327814202142    68.80769693     0.00000000
 H      2   1   3     1.016903986991   121.56823828   114.67410747
 H      2   1   3     1.108226500687   115.47641692   260.86181454
 H      3   1   2     0.998156448227   120.82363788   119.85475116
 H      3   1   2     1.170273755952   114.53805235   257.49349324

---------------------------
INTERNAL COORDINATES (A.U.)
---------------------------
 O      0   0   0     0.000000000000     0.00000000     0.00000000
 C      1   0   0     2.341087156895     0.00000000     0.00000000
 C      1   2   0     2.509205198779    68.80769693     0.00000000
 H      2   1   3     1.921670039905   121.56823828   114.67410747
 H      2   1   3     2.094244580652   115.47641692   260.86181454
 H      3   1   2     1.886242325956   120.82363788   119.85475116
 H      3   1   2     2.211496900465   114.53805235   257.49349324

---------------------
BASIS SET INFORMATION
---------------------
There are 3 groups of distinct atoms

 Group   1 Type O   : 11s6p2d1f contracted to 5s3p2d1f pattern {62111/411/11/1}
 Group   2 Type C   : 11s6p2d1f contracted to 5s3p2d1f pattern {62111/411/11/1}
 Group   3 Type H   : 5s1p contracted to 3s1p pattern {311/1}

Atom   0O    basis set group =>   1
Atom   1C    basis set group =>   2
Atom   2C    basis set group =>   2
Atom   3H    basis set group =>   3
Atom   4H    basis set group =>   3
Atom   5H    basis set group =>   3
Atom   6H    basis set group =>   3
---------------------------------
AUXILIARY/J BASIS SET INFORMATION
---------------------------------
There are 3 groups of distinct atoms

 Group   1 Type O   : 12s5p4d2f1g contracted to 6s4p3d1f1g pattern {711111/2111/211/2/1}
 Group   2 Type C   : 12s5p4d2f1g contracted to 6s4p3d1f1g pattern {711111/2111/211/2/1}
 Group   3 Type H   : 5s2p1d contracted to 3s1p1d pattern {311/2/1}

Atom   0O    basis set group =>   1
Atom   1C    basis set group =>   2
Atom   2C    basis set group =>   2
Atom   3H    basis set group =>   3
Atom   4H    basis set group =>   3
Atom   5H    basis set group =>   3
Atom   6H    basis set group =>   3


           ************************************************************
           *        Program running with 8 parallel MPI-processes     *
           *              working on a common directory               *
           ************************************************************
------------------------------------------------------------------------------
                           ORCA GTO INTEGRAL CALCULATION
                           -- RI-GTO INTEGRALS CHOSEN --
------------------------------------------------------------------------------
------------------------------------------------------------------------------
                   ___                                                        
                  /   \      - P O W E R E D   B Y -                         
                 /     \                                                     
                 |  |  |   _    _      __       _____    __    __             
                 |  |  |  | |  | |    /  \     |  _  \  |  |  /  |          
                  \  \/   | |  | |   /    \    | | | |  |  | /  /          
                 / \  \   | |__| |  /  /\  \   | |_| |  |  |/  /          
                |  |  |   |  __  | /  /__\  \  |    /   |      \           
                |  |  |   | |  | | |   __   |  |    \   |  |\   \          
                \     /   | |  | | |  |  |  |  | |\  \  |  | \   \       
                 \___/    |_|  |_| |__|  |__|  |_| \__\ |__|  \__/        
                                                                              
                      - O R C A' S   B I G   F R I E N D -                    
                                      &                                       
                       - I N T E G R A L  F E E D E R -                       
                                                                              
 v1 FN, 2020, v2 2021                                                         
------------------------------------------------------------------------------


Reading SHARK input file ox_gs_A_orca0027.SHARKINP.tmp ... ok
----------------------
SHARK INTEGRAL PACKAGE
----------------------

Number of atoms                             ...      7
Number of basis functions                   ...    117
Number of shells                            ...     49
Maximum angular momentum                    ...      3
Integral batch strategy                     ... SHARK/LIBINT Hybrid
RI-J (if used) integral strategy            ... SPLIT-RIJ (Revised 2003 algorithm where possible)
Printlevel                                  ...      1
Contraction scheme used                     ... SEGMENTED contraction
Coulomb Range Separation                    ... NOT USED
Exchange Range Separation                   ... NOT USED
Finite Nucleus Model                        ... NOT USED
Auxiliary Coulomb fitting basis             ... AVAILABLE
   # of basis functions in Aux-J            ...    191
   # of shells in Aux-J                     ...     65
   Maximum angular momentum in Aux-J        ...      4
Auxiliary J/K fitting basis                 ... NOT available
Auxiliary Correlation fitting basis         ... NOT available
Auxiliary 'external' fitting basis          ... NOT available
Integral threshold                          ...     2.500000e-11
Primitive cut-off                           ...     2.500000e-12
Primitive pair pre-selection threshold      ...     2.500000e-12

Calculating pre-screening integrals         ... done (  0.0 sec) Dimension = 49
Organizing shell pair data                  ... done (  0.0 sec)
Shell pair information
Total number of shell pairs                 ...      1225
Shell pairs after pre-screening             ...      1222
Total number of primitive shell pairs       ...      3648
Primitive shell pairs kept                  ...      3175
          la=0 lb=0:    375 shell pairs
          la=1 lb=0:    351 shell pairs
          la=1 lb=1:     91 shell pairs
          la=2 lb=0:    162 shell pairs
          la=2 lb=1:     78 shell pairs
          la=2 lb=2:     21 shell pairs
          la=3 lb=0:     81 shell pairs
          la=3 lb=1:     39 shell pairs
          la=3 lb=2:     18 shell pairs
          la=3 lb=3:      6 shell pairs

Calculating one electron integrals          ... done (  0.0 sec)
Calculating RI/J V-Matrix + Cholesky decomp.... done (  0.0 sec)
Calculating Nuclear repulsion               ... done (  0.0 sec) ENN=     80.173285190595 Eh

SHARK setup successfully completed in   0.1 seconds

Maximum memory used throughout the entire GTOINT-calculation: 14.9 MB


           ************************************************************
           *        Program running with 8 parallel MPI-processes     *
           *              working on a common directory               *
           ************************************************************
-------------------------------------------------------------------------------
                                 ORCA SCF
-------------------------------------------------------------------------------

------------
SCF SETTINGS
------------
Hamiltonian:
 Density Functional     Method          .... DFT(GTOs)
 Exchange Functional    Exchange        .... PBE
   PBE kappa parameter   XKappa         ....  0.804000
   PBE mue parameter    XMuePBE         ....  0.219520
 Correlation Functional Correlation     .... PBE
   PBE beta parameter  CBetaPBE         ....  0.066725
 LDA part of GGA corr.  LDAOpt          .... PW91-LDA
 Gradients option       PostSCFGGA      .... off
 Hybrid DFT is turned on
   Fraction HF Exchange ScalHFX         ....  0.250000
   Scaling of DF-GGA-X  ScalDFX         ....  0.750000
   Scaling of DF-GGA-C  ScalDFC         ....  1.000000
   Scaling of DF-LDA-C  ScalLDAC        ....  1.000000
   Perturbative correction              ....  0.000000
   Density functional embedding theory  .... OFF
   NL short-range parameter             ....  6.900000
 RI-approximation to the Coulomb term is turned on
   Number of AuxJ basis functions       .... 191
   RIJ-COSX (HFX calculated with COS-X)).... on


General Settings:
 Integral files         IntName         .... ox_gs_A_orca0027
 Hartree-Fock type      HFTyp           .... RHF
 Total Charge           Charge          ....    0
 Multiplicity           Mult            ....    1
 Number of Electrons    NEL             ....   24
 Basis Dimension        Dim             ....  117
 Nuclear Repulsion      ENuc            ....     80.1732851906 Eh

Convergence Acceleration:
 DIIS                   CNVDIIS         .... on
   Start iteration      DIISMaxIt       ....    12
   Startup error        DIISStart       ....  0.200000
   # of expansion vecs  DIISMaxEq       ....     5
   Bias factor          DIISBfac        ....   1.050
   Max. coefficient     DIISMaxC        ....  10.000
 Trust-Rad. Augm. Hess. CNVTRAH         .... auto
   Auto Start mean grad. ratio tolernc. ....  1.125000
   Auto Start start iteration           ....    20
   Auto Start num. interpolation iter.  ....    10
   Max. Number of Micro iterations      ....    16
   Max. Number of Macro iterations      .... Maxiter - #DIIS iter
   Number of Davidson start vectors     ....     2
   Converg. threshold I  (grad. norm)   ....   1.000e-05
   Converg. threshold II (energy diff.) ....   1.000e-08
   Grad. Scal. Fac. for Micro threshold ....   0.100
   Minimum threshold for Micro iter.    ....   0.010
   NR start threshold (gradient norm)   ....   0.001
   Initial trust radius                 ....   0.400
   Minimum AH scaling param. (alpha)    ....   1.000
   Maximum AH scaling param. (alpha)    .... 1000.000
   Orbital update algorithm             .... Taylor
   White noise on init. David. guess    .... on
   Maximum white noise                  ....   0.010
   Quad. conv. algorithm                .... NR
 SOSCF                  CNVSOSCF        .... on
   Start iteration      SOSCFMaxIt      ....   150
   Startup grad/error   SOSCFStart      ....  0.003300
 Level Shifting         CNVShift        .... on
   Level shift para.    LevelShift      ....    0.2500
   Turn off err/grad.   ShiftErr        ....    0.0010
 Zerner damping         CNVZerner       .... off
 Static damping         CNVDamp         .... on
   Fraction old density DampFac         ....    0.7000
   Max. Damping (<1)    DampMax         ....    0.9800
   Min. Damping (>=0)   DampMin         ....    0.0000
   Turn off err/grad.   DampErr         ....    0.1000
 Fernandez-Rico         CNVRico         .... off

SCF Procedure:
 Maximum # iterations   MaxIter         ....   125
 SCF integral mode      SCFMode         .... Direct
   Integral package                     .... SHARK and LIBINT hybrid scheme
 Reset frequency        DirectResetFreq ....    20
 Integral Threshold     Thresh          ....  2.500e-11 Eh
 Primitive CutOff       TCut            ....  2.500e-12 Eh

Convergence Tolerance:
 Convergence Check Mode ConvCheckMode   .... Total+1el-Energy
 Convergence forced     ConvForced      .... 0
 Energy Change          TolE            ....  1.000e-08 Eh
 1-El. energy change                    ....  1.000e-05 Eh
 Orbital Gradient       TolG            ....  1.000e-05
 Orbital Rotation angle TolX            ....  1.000e-05
 DIIS Error             TolErr          ....  5.000e-07


Diagonalization of the overlap matrix:
Smallest eigenvalue                        ... 3.134e-04
Time for diagonalization                   ...    0.001 sec
Threshold for overlap eigenvalues          ... 1.000e-08
Number of eigenvalues below threshold      ... 0
Time for construction of square roots      ...    0.001 sec
Total time needed                          ...    0.003 sec

Time for model grid setup =    0.019 sec

------------------------------
INITIAL GUESS: MODEL POTENTIAL
------------------------------
Loading Hartree-Fock densities                     ... done
Calculating cut-offs                               ... done
Initializing the effective Hamiltonian             ... done
Setting up the integral package (SHARK)            ... done
Starting the Coulomb interaction                   ... done (   0.0 sec)
Reading the grid                                   ... done
Mapping shells                                     ... done
Starting the XC term evaluation                    ... done (   0.0 sec)
  promolecular density results
     # of electrons  =     23.996492615
     EX              =    -19.651443523
     EC              =     -0.794662640
     EX+EC           =    -20.446106162
Transforming the Hamiltonian                       ... done (   0.0 sec)
Diagonalizing the Hamiltonian                      ... done (   0.0 sec)
Back transforming the eigenvectors                 ... done (   0.0 sec)
Now organizing SCF variables                       ... done
                      ------------------
                      INITIAL GUESS DONE (   0.0 sec)
                      ------------------
-------------------
DFT GRID GENERATION
-------------------

General Integration Accuracy     IntAcc      ... 4.388
Radial Grid Type                 RadialGrid  ... OptM3 with GC (2021)
Angular Grid (max. ang.)         AngularGrid ... 4 (Lebedev-302)
Angular grid pruning method      GridPruning ... 4 (adaptive)
Weight generation scheme         WeightScheme... Becke
Basis function cutoff            BFCut       ... 1.0000e-11
Integration weight cutoff        WCut        ... 1.0000e-14
Angular grids for H and He will be reduced by one unit
Partially contracted basis set               ... off
Rotationally invariant grid construction     ... off

Total number of grid points                  ...    31275
Total number of batches                      ...      493
Average number of points per batch           ...       63
Average number of grid points per atom       ...     4468
Time for grid setup =    0.114 sec

--------------------
COSX GRID GENERATION
--------------------

GRIDX 1
-------
General Integration Accuracy     IntAcc      ... 3.816
Radial Grid Type                 RadialGrid  ... OptM3 with GC (2021)
Angular Grid (max. ang.)         AngularGrid ... 1 (Lebedev-50)
Angular grid pruning method      GridPruning ... 4 (adaptive)
Weight generation scheme         WeightScheme... Becke
Basis function cutoff            BFCut       ... 1.0000e-11
Integration weight cutoff        WCut        ... 1.0000e-14
Angular grids for H and He will be reduced by one unit
Partially contracted basis set               ... on
Rotationally invariant grid construction     ... off

Total number of grid points                  ...     4030
Total number of batches                      ...       67
Average number of points per batch           ...       60
Average number of grid points per atom       ...      576
UseSFitting                                  ... on

GRIDX 2
-------
General Integration Accuracy     IntAcc      ... 4.020
Radial Grid Type                 RadialGrid  ... OptM3 with GC (2021)
Angular Grid (max. ang.)         AngularGrid ... 2 (Lebedev-110)
Angular grid pruning method      GridPruning ... 4 (adaptive)
Weight generation scheme         WeightScheme... Becke
Basis function cutoff            BFCut       ... 1.0000e-11
Integration weight cutoff        WCut        ... 1.0000e-14
Angular grids for H and He will be reduced by one unit
Partially contracted basis set               ... on
Rotationally invariant grid construction     ... off

Total number of grid points                  ...     8699
Total number of batches                      ...      139
Average number of points per batch           ...       62
Average number of grid points per atom       ...     1243
UseSFitting                                  ... on

GRIDX 3
-------
General Integration Accuracy     IntAcc      ... 4.338
Radial Grid Type                 RadialGrid  ... OptM3 with GC (2021)
Angular Grid (max. ang.)         AngularGrid ... 3 (Lebedev-194)
Angular grid pruning method      GridPruning ... 4 (adaptive)
Weight generation scheme         WeightScheme... Becke
Basis function cutoff            BFCut       ... 1.0000e-11
Integration weight cutoff        WCut        ... 1.0000e-14
Angular grids for H and He will be reduced by one unit
Partially contracted basis set               ... on
Rotationally invariant grid construction     ... off

Total number of grid points                  ...    19231
Total number of batches                      ...      303
Average number of points per batch           ...       63
Average number of grid points per atom       ...     2747
UseSFitting                                  ... on

Time for X-Grid setup             =    0.073 sec

--------------
SCF ITERATIONS
--------------
ITER       Energy         Delta-E        Max-DP      RMS-DP      [F,P]     Damp
               ***  Starting incremental Fock matrix formation  ***
  0   -153.5453046369   0.000000000000 0.03757166  0.00131958  0.1903339 0.7000
  1   -153.5822401694  -0.036935532528 0.02143998  0.00099686  0.0848516 0.7000
                               ***Turning on DIIS***
  2   -153.5975167035  -0.015276534078 0.03351457  0.00168853  0.0349246 0.0000
  3   -153.6213410278  -0.023824324364 0.01481256  0.00074117  0.0427701 0.0000
  4   -153.6265028442  -0.005161816330 0.00435654  0.00022163  0.0069218 0.0000
  5   -153.6266873562  -0.000184512076 0.00185722  0.00008284  0.0036338 0.0000
                      *** Initiating the SOSCF procedure ***
                           *** Shutting down DIIS ***
                      *** Re-Reading the Fockian *** 
                      *** Removing any level shift *** 
ITER      Energy       Delta-E        Grad      Rot      Max-DP    RMS-DP
  6   -153.62670775  -0.0000203981  0.000187  0.000187  0.001139  0.000043
               *** Restarting incremental Fock matrix formation ***
  7   -153.62669789   0.0000098615  0.000051  0.000060  0.000107  0.000005
  8   -153.62669789   0.0000000045  0.000064  0.000050  0.000059  0.000003
  9   -153.62669793  -0.0000000464  0.000006  0.000009  0.000011  0.000001
 10   -153.62669793  -0.0000000001  0.000007  0.000005  0.000006  0.000000
                 **** Energy Check signals convergence ****
              ***Rediagonalizing the Fockian in SOSCF/NRSCF***

               *****************************************************
               *                     SUCCESS                       *
               *           SCF CONVERGED AFTER  11 CYCLES          *
               *****************************************************

Old exchange energy                            =     -5.042045184 Eh
New exchange energy                            =     -5.042034935 Eh
Exchange energy change after final integration =      0.000010249 Eh
Total energy after final integration           =   -153.626687687 Eh
Final COS-X integration done in                =     0.271 sec

----------------
TOTAL SCF ENERGY
----------------

Total Energy       :         -153.62668769 Eh           -4180.39470 eV

Components:
Nuclear Repulsion  :           80.17328519 Eh            2181.62600 eV
Electronic Energy  :         -233.79997288 Eh           -6362.02070 eV
One Electron Energy:         -366.45451754 Eh           -9971.73438 eV
Two Electron Energy:          132.65454466 Eh            3609.71367 eV
Max COSX asymmetry :            0.00000145 Eh               0.00004 eV

Virial components:
Potential Energy   :         -307.31224210 Eh           -8362.39124 eV
Kinetic Energy     :          153.68555441 Eh            4181.99654 eV
Virial Ratio       :            1.99961697


DFT components:
N(Alpha)           :       12.000001944553 electrons
N(Beta)            :       12.000001944553 electrons
N(Total)           :       24.000003889106 electrons
E(X)               :      -15.078498569389 Eh       
E(C)               :       -0.801284498440 Eh       
E(XC)              :      -15.879783067829 Eh       
DFET-embed. en.    :        0.000000000000 Eh       

---------------
SCF CONVERGENCE
---------------

  Last Energy change         ...   -9.6244e-10  Tolerance :   1.0000e-08
  Last MAX-Density change    ...    1.4433e-15  Tolerance :   1.0000e-07
  Last RMS-Density change    ...    2.6283e-17  Tolerance :   5.0000e-09
  Last Orbital Gradient      ...    1.4411e-07  Tolerance :   1.0000e-05
  Last Orbital Rotation      ...    3.2787e-07  Tolerance :   1.0000e-05

             **** THE GBW FILE WAS UPDATED (ox_gs_A_orca0027.gbw) ****
             **** DENSITY ox_gs_A_orca0027.scfp WAS UPDATED ****
             **** ENERGY FILE WAS UPDATED (ox_gs_A_orca0027.en.tmp) ****
             **** THE GBW FILE WAS UPDATED (ox_gs_A_orca0027.gbw) ****
             **** DENSITY ox_gs_A_orca0027.scfp WAS UPDATED ****
----------------
ORBITAL ENERGIES
----------------

  NO   OCC          E(Eh)            E(eV) 
   0   2.0000     -19.227775      -523.2144 
   1   2.0000     -10.266132      -279.3557 
   2   2.0000     -10.262441      -279.2552 
   3   2.0000      -1.212851       -33.0034 
   4   2.0000      -0.694204       -18.8902 
   5   2.0000      -0.679437       -18.4884 
   6   2.0000      -0.563625       -15.3370 
   7   2.0000      -0.538830       -14.6623 
   8   2.0000      -0.470895       -12.8137 
   9   2.0000      -0.392203       -10.6724 
  10   2.0000      -0.307953        -8.3798 
  11   2.0000      -0.290545        -7.9061 
  12   0.0000       0.066770         1.8169 
  13   0.0000       0.084335         2.2949 
  14   0.0000       0.104152         2.8341 
  15   0.0000       0.106820         2.9067 
  16   0.0000       0.129565         3.5257 
  17   0.0000       0.154515         4.2046 
  18   0.0000       0.197643         5.3781 
  19   0.0000       0.225082         6.1248 
  20   0.0000       0.270135         7.3507 
  21   0.0000       0.276975         7.5369 
  22   0.0000       0.301602         8.2070 
  23   0.0000       0.366338         9.9686 
  24   0.0000       0.398629        10.8472 
  25   0.0000       0.400520        10.8987 
  26   0.0000       0.408710        11.1216 
  27   0.0000       0.438089        11.9210 
  28   0.0000       0.470279        12.7969 
  29   0.0000       0.501576        13.6486 
  30   0.0000       0.518386        14.1060 
  31   0.0000       0.536646        14.6029 
  32   0.0000       0.554508        15.0889 
  33   0.0000       0.705965        19.2103 
  34   0.0000       0.721455        19.6318 
  35   0.0000       0.731435        19.9034 
  36   0.0000       0.847395        23.0588 
  37   0.0000       0.864748        23.5310 
  38   0.0000       0.921834        25.0844 
  39   0.0000       0.948348        25.8059 
  40   0.0000       1.040338        28.3090 
  41   0.0000       1.067988        29.0614 
  42   0.0000       1.085616        29.5411 
  43   0.0000       1.096108        29.8266 
  44   0.0000       1.177545        32.0426 
  45   0.0000       1.367475        37.2109 
  46   0.0000       1.400695        38.1149 
  47   0.0000       1.493848        40.6497 
  48   0.0000       1.522262        41.4229 
  49   0.0000       1.542812        41.9821 
  50   0.0000       1.593588        43.3637 
  51   0.0000       1.626042        44.2469 
  52   0.0000       1.656053        45.0635 
  53   0.0000       1.690024        45.9879 
  54   0.0000       1.750091        47.6224 
  55   0.0000       1.789400        48.6920 
  56   0.0000       1.863620        50.7117 
  57   0.0000       1.951016        53.0898 
  58   0.0000       1.988799        54.1180 
  59   0.0000       2.009303        54.6759 
  60   0.0000       2.095852        57.0310 
  61   0.0000       2.188946        59.5642 
  62   0.0000       2.208386        60.0932 
  63   0.0000       2.301076        62.6155 
  64   0.0000       2.317515        63.0628 
  65   0.0000       2.439540        66.3833 
  66   0.0000       2.457914        66.8832 
  67   0.0000       2.542164        69.1758 
  68   0.0000       2.552893        69.4677 
  69   0.0000       2.594245        70.5930 
  70   0.0000       2.703698        73.5714 
  71   0.0000       2.722548        74.0843 
  72   0.0000       2.750864        74.8548 
  73   0.0000       2.767164        75.2984 
  74   0.0000       2.818369        76.6917 
  75   0.0000       2.880341        78.3781 
  76   0.0000       2.940105        80.0043 
  77   0.0000       2.977454        81.0206 
  78   0.0000       3.021456        82.2180 
  79   0.0000       3.059075        83.2417 
  80   0.0000       3.079010        83.7841 
  81   0.0000       3.106692        84.5374 
  82   0.0000       3.173636        86.3590 
  83   0.0000       3.305957        89.9597 
  84   0.0000       3.356297        91.3295 
  85   0.0000       3.406121        92.6853 
  86   0.0000       3.440335        93.6163 
  87   0.0000       3.488912        94.9381 
  88   0.0000       3.613814        98.3369 
  89   0.0000       3.653123        99.4065 
  90   0.0000       3.790445       103.1433 
  91   0.0000       3.795623       103.2841 
  92   0.0000       3.895883       106.0124 
  93   0.0000       3.982907       108.3804 
  94   0.0000       4.075275       110.8939 
  95   0.0000       4.128272       112.3360 
  96   0.0000       4.241809       115.4255 
  97   0.0000       4.365554       118.7928 
  98   0.0000       4.458580       121.3241 
  99   0.0000       4.631793       126.0375 
 100   0.0000       4.814716       131.0151 
 101   0.0000       4.919836       133.8755 
 102   0.0000       5.477313       149.0453 
 103   0.0000       5.634985       153.3357 
 104   0.0000       5.909391       160.8027 
 105   0.0000       5.999531       163.2555 
 106   0.0000       6.128913       166.7762 
 107   0.0000       6.148658       167.3135 
 108   0.0000       6.348779       172.7591 
 109   0.0000       6.702292       182.3786 
 110   0.0000       6.752858       183.7546 
 111   0.0000       6.849696       186.3897 
 112   0.0000       7.054672       191.9674 
 113   0.0000       7.245357       197.1562 
 114   0.0000      22.551418       613.6553 
 115   0.0000      22.869513       622.3111 
 116   0.0000      43.970947      1196.5103 

                    ********************************
                    * MULLIKEN POPULATION ANALYSIS *
                    ********************************

-----------------------
MULLIKEN ATOMIC CHARGES
-----------------------
   0 O :   -0.245116
   1 C :   -0.039880
   2 C :   -0.099677
   3 H :    0.101302
   4 H :    0.068738
   5 H :    0.125927
   6 H :    0.088705
Sum of atomic charges:   -0.0000000

--------------------------------
MULLIKEN REDUCED ORBITAL CHARGES
--------------------------------
  0 O s       :     3.794440  s :     3.794440
      pz      :     1.764428  p :     4.389616
      px      :     1.281006
      py      :     1.344182
      dz2     :     0.005866  d :     0.057935
      dxz     :     0.005023
      dyz     :     0.010146
      dx2y2   :     0.017846
      dxy     :     0.019054
      f0      :     0.000453  f :     0.003125
      f+1     :     0.000282
      f-1     :     0.000502
      f+2     :     0.000111
      f-2     :     0.000424
      f+3     :     0.000308
      f-3     :     0.001046
  1 C s       :     3.170191  s :     3.170191
      pz      :     1.027427  p :     2.715548
      px      :     0.895439
      py      :     0.792682
      dz2     :     0.006114  d :     0.138442
      dxz     :     0.031317
      dyz     :     0.039998
      dx2y2   :     0.037374
      dxy     :     0.023639
      f0      :     0.002266  f :     0.015700
      f+1     :     0.001530
      f-1     :     0.000880
      f+2     :     0.001293
      f-2     :     0.002769
      f+3     :     0.002890
      f-3     :     0.004072
  2 C s       :     3.199566  s :     3.199566
      pz      :     1.051145  p :     2.769093
      px      :     0.890785
      py      :     0.827163
      dz2     :     0.005525  d :     0.116798
      dxz     :     0.029725
      dyz     :     0.030695
      dx2y2   :     0.032124
      dxy     :     0.018730
      f0      :     0.001823  f :     0.014219
      f+1     :     0.001612
      f-1     :     0.000701
      f+2     :     0.001378
      f-2     :     0.002446
      f+3     :     0.002796
      f-3     :     0.003462
  3 H s       :     0.875739  s :     0.875739
      pz      :     0.010575  p :     0.022959
      px      :     0.007503
      py      :     0.004881
  4 H s       :     0.910468  s :     0.910468
      pz      :     0.010732  p :     0.020793
      px      :     0.005771
      py      :     0.004291
  5 H s       :     0.850313  s :     0.850313
      pz      :     0.010396  p :     0.023759
      px      :     0.008333
      py      :     0.005031
  6 H s       :     0.892795  s :     0.892795
      pz      :     0.009503  p :     0.018499
      px      :     0.005277
      py      :     0.003719


                     *******************************
                     * LOEWDIN POPULATION ANALYSIS *
                     *******************************

----------------------
LOEWDIN ATOMIC CHARGES
----------------------
   0 O :    0.314246
   1 C :   -0.417902
   2 C :   -0.327624
   3 H :    0.096423
   4 H :    0.116425
   5 H :    0.090563
   6 H :    0.127870

-------------------------------
LOEWDIN REDUCED ORBITAL CHARGES
-------------------------------
  0 O s       :     3.223061  s :     3.223061
      pz      :     1.589780  p :     4.295969
      px      :     1.256483
      py      :     1.449706
      dz2     :     0.012954  d :     0.153349
      dxz     :     0.017014
      dyz     :     0.026374
      dx2y2   :     0.060783
      dxy     :     0.036224
      f0      :     0.001404  f :     0.013375
      f+1     :     0.000517
      f-1     :     0.001150
      f+2     :     0.000207
      f-2     :     0.002247
      f+3     :     0.001937
      f-3     :     0.005912
  1 C s       :     2.768907  s :     2.768907
      pz      :     1.028543  p :     2.922295
      px      :     1.004637
      py      :     0.889114
      dz2     :     0.059395  d :     0.611856
      dxz     :     0.159097
      dyz     :     0.135621
      dx2y2   :     0.134370
      dxy     :     0.123374
      f0      :     0.018086  f :     0.114844
      f+1     :     0.008138
      f-1     :     0.007211
      f+2     :     0.009547
      f-2     :     0.016082
      f+3     :     0.019488
      f-3     :     0.036292
  2 C s       :     2.789635  s :     2.789635
      pz      :     1.042346  p :     2.941301
      px      :     1.006615
      py      :     0.892340
      dz2     :     0.051386  d :     0.506044
      dxz     :     0.152571
      dyz     :     0.093024
      dx2y2   :     0.110204
      dxy     :     0.098859
      f0      :     0.012395  f :     0.090645
      f+1     :     0.007638
      f-1     :     0.006373
      f+2     :     0.008357
      f-2     :     0.011722
      f+3     :     0.017348
      f-3     :     0.026812
  3 H s       :     0.832223  s :     0.832223
      pz      :     0.034428  p :     0.071354
      px      :     0.021450
      py      :     0.015476
  4 H s       :     0.827114  s :     0.827114
      pz      :     0.030133  p :     0.056461
      px      :     0.014701
      py      :     0.011627
  5 H s       :     0.831772  s :     0.831772
      pz      :     0.035786  p :     0.077665
      px      :     0.024970
      py      :     0.016908
  6 H s       :     0.823439  s :     0.823439
      pz      :     0.026182  p :     0.048691
      px      :     0.012738
      py      :     0.009772


                      *****************************
                      * MAYER POPULATION ANALYSIS *
                      *****************************

  NA   - Mulliken gross atomic population
  ZA   - Total nuclear charge
  QA   - Mulliken gross atomic charge
  VA   - Mayer's total valence
  BVA  - Mayer's bonded valence
  FA   - Mayer's free valence

  ATOM       NA         ZA         QA         VA         BVA        FA
  0 O      8.2451     8.0000    -0.2451     2.0540     2.0540    -0.0000
  1 C      6.0399     6.0000    -0.0399     4.0281     4.0281     0.0000
  2 C      6.0997     6.0000    -0.0997     3.9560     3.9560    -0.0000
  3 H      0.8987     1.0000     0.1013     0.9578     0.9578     0.0000
  4 H      0.9313     1.0000     0.0687     0.9610     0.9610     0.0000
  5 H      0.8741     1.0000     0.1259     0.9623     0.9623    -0.0000
  6 H      0.9113     1.0000     0.0887     0.9675     0.9675     0.0000

  Mayer bond orders larger than 0.100000
B(  0-O ,  1-C ) :   1.0529 B(  0-O ,  2-C ) :   0.9684 B(  1-C ,  2-C ) :   1.0547 
B(  1-C ,  3-H ) :   0.9573 B(  1-C ,  4-H ) :   0.9515 B(  2-C ,  5-H ) :   0.9644 
B(  2-C ,  6-H ) :   0.9541 

-------
TIMINGS
-------

Total SCF time: 0 days 0 hours 0 min 2 sec 

Total time                  ....       2.621 sec
Sum of individual times     ....       2.434 sec  ( 92.9%)

Fock matrix formation       ....       2.166 sec  ( 82.7%)
  Split-RI-J                ....       0.243 sec  ( 11.2% of F)
  Chain of spheres X        ....       1.485 sec  ( 68.6% of F)
  XC integration            ....       0.416 sec  ( 19.2% of F)
    Basis function eval.    ....       0.111 sec  ( 26.7% of XC)
    Density eval.           ....       0.083 sec  ( 20.1% of XC)
    XC-Functional eval.     ....       0.024 sec  (  5.7% of XC)
    XC-Potential eval.      ....       0.153 sec  ( 36.7% of XC)
Diagonalization             ....       0.016 sec  (  0.6%)
Density matrix formation    ....       0.001 sec  (  0.1%)
Population analysis         ....       0.002 sec  (  0.1%)
Initial guess               ....       0.018 sec  (  0.7%)
Orbital Transformation      ....       0.000 sec  (  0.0%)
Orbital Orthonormalization  ....       0.000 sec  (  0.0%)
DIIS solution               ....       0.013 sec  (  0.5%)
SOSCF solution              ....       0.011 sec  (  0.4%)
Grid generation             ....       0.206 sec  (  7.9%)

Maximum memory used throughout the entire SCF-calculation: 61.1 MB


-------------------------------------------------------------------------------
                          DFT DISPERSION CORRECTION                            
                                                                               
                              DFTD3 V3.1  Rev 1                                
                          USING Becke-Johnson damping                          
-------------------------------------------------------------------------------
The PBE0 functional is recognized
Active option DFTDOPT                   ...         4   

molecular C6(AA) [au] = 350.779432 


            DFT-D V3
 parameters
 s6 scaling factor         :     1.0000 
 a1 scaling factor         :     0.4145 
 s8 scaling factor         :     1.2177 
 a2 scaling factor         :     4.8593 
 ad hoc parameters k1-k3   :    16.0000     1.3333    -4.0000 

 Edisp/kcal,au: -1.516436807098  -0.002416595618 
 E6   /kcal   :  -0.995102364 
 E8   /kcal   :  -0.521334443 
 % E8         :  34.378909860 

-------------------------   ----------------
Dispersion correction           -0.002416596
-------------------------   ----------------


-------------------------   --------------------
FINAL SINGLE POINT ENERGY      -153.629104282161
-------------------------   --------------------



           ************************************************************
           *        Program running with 8 parallel MPI-processes     *
           *              working on a common directory               *
           ************************************************************
------------------------------------------------------------------------------
                         ORCA SCF GRADIENT CALCULATION
------------------------------------------------------------------------------

 ... reading COSX grid (gridx3)
Gradient of the Kohn-Sham DFT energy:
Kohn-Sham wavefunction type      ... RKS
Hartree-Fock exchange scaling    ...    0.250
Number of operators              ...    1
Number of atoms                  ...    7
Basis set dimensions             ...  117
Integral neglect threshold       ... 2.5e-11
Integral primitive cutoff        ... 2.5e-12
SHARK Integral package           ... ON

Nuc. rep. gradient       (SHARK) ... done (  0.0 sec)
HCore & Overlap gradient (SHARK) ... done (  0.0 sec)
RI-J gradient            (SHARK) ... done (  0.1 sec)
COSX-gradient                    ... done (  0.3 sec)
Exchange-correlation gradient    ... done
Dispersion correction            ... done

------------------
CARTESIAN GRADIENT
------------------

   1   O   :   -0.058039300   -0.201843469   -0.001971971
   2   C   :    0.060672494    0.133799920    0.081185376
   3   C   :   -0.023130052    0.052032103   -0.121263340
   4   H   :    0.026091751    0.017517557   -0.052039712
   5   H   :    0.009425543   -0.002238425   -0.008124024
   6   H   :   -0.031423094    0.012470052    0.069157999
   7   H   :    0.016437166   -0.011920659    0.033171016

Difference to translation invariance:
           :    0.0000345085   -0.0001829216    0.0001153440

Difference to rotation invariance:
           :    0.0000817283   -0.0000019487    0.0001425726

Norm of the cartesian gradient     ...    0.3186361166
RMS gradient                       ...    0.0695321011
MAX gradient                       ...    0.2018434689

-------
TIMINGS
-------

Total SCF gradient time            ...        0.722 sec

One electron gradient       ....       0.010 sec  (  1.4%)
RI-J Coulomb gradient       ....       0.082 sec  ( 11.3%)
COSX gradient               ....       0.324 sec  ( 44.9%)
XC gradient                 ....       0.167 sec  ( 23.2%)

Maximum memory used throughout the entire SCFGRAD-calculation: 35.9 MB

                            ***************************************
                            *     ORCA property calculations      *
                            ***************************************

                                    ---------------------
                                    Active property flags
                                    ---------------------
   (+) Dipole Moment


------------------------------------------------------------------------------
                       ORCA ELECTRIC PROPERTIES CALCULATION
------------------------------------------------------------------------------

Dipole Moment Calculation                       ... on
Quadrupole Moment Calculation                   ... off
Polarizability Calculation                      ... off
GBWName                                         ... ox_gs_A_orca0027.gbw
Electron density                                ... ox_gs_A_orca0027.scfp
The origin for moment calculation is the CENTER OF MASS  = (-0.034876, -0.043207 -0.066141)

-------------
DIPOLE MOMENT
-------------
                                X             Y             Z
Electronic contribution:     -0.14698       1.81659      -0.03143
Nuclear contribution   :      0.17482      -2.27472       0.01143
                        -----------------------------------------
Total Dipole Moment    :      0.02784      -0.45813      -0.02000
                        -----------------------------------------
Magnitude (a.u.)       :      0.45941
Magnitude (Debye)      :      1.16773



--------------------
Rotational spectrum 
--------------------
 
Rotational constants in cm-1:     1.085111     0.752128     0.535971 
Rotational constants in MHz : 32530.795587 22548.243379 16068.014858 

 Dipole components along the rotational axes: 
x,y,z [a.u.] :    -0.090949    -0.450204    -0.010127 
x,y,z [Debye]:    -0.231175    -1.144328    -0.025742 

 

Timings for individual modules:

Sum of individual times         ...        4.110 sec (=   0.068 min)
GTO integral calculation        ...        0.326 sec (=   0.005 min)   7.9 %
SCF iterations                  ...        2.820 sec (=   0.047 min)  68.6 %
SCF Gradient evaluation         ...        0.964 sec (=   0.016 min)  23.5 %
                             ****ORCA TERMINATED NORMALLY****
TOTAL RUN TIME: 0 days 0 hours 0 minutes 4 seconds 384 msec
