
                                 *****************
                                 * O   R   C   A *
                                 *****************

                                            #,                                       
                                            ###                                      
                                            ####                                     
                                            #####                                    
                                            ######                                   
                                           ########,                                 
                                     ,,################,,,,,                         
                               ,,#################################,,                 
                          ,,##########################################,,             
                       ,#########################################, ''#####,          
                    ,#############################################,,   '####,        
                  ,##################################################,,,,####,       
                ,###########''''           ''''###############################       
              ,#####''   ,,,,##########,,,,          '''####'''          '####       
            ,##' ,,,,###########################,,,                        '##       
           ' ,,###''''                  '''############,,,                           
         ,,##''                                '''############,,,,        ,,,,,,###''
      ,#''                                            '''#######################'''  
     '                                                          ''''####''''         
             ,#######,   #######,   ,#######,      ##                                
            ,#'     '#,  ##    ##  ,#'     '#,    #''#        ######   ,####,        
            ##       ##  ##   ,#'  ##            #'  '#       #        #'  '#        
            ##       ##  #######   ##           ,######,      #####,   #    #        
            '#,     ,#'  ##    ##  '#,     ,#' ,#      #,         ##   #,  ,#        
             '#######'   ##     ##  '#######'  #'      '#     #####' # '####'        



                  #######################################################
                  #                        -***-                        #
                  #          Department of theory and spectroscopy      #
                  #    Directorship and core code : Frank Neese         #
                  #        Max Planck Institute fuer Kohlenforschung    #
                  #                Kaiser Wilhelm Platz 1               #
                  #                 D-45470 Muelheim/Ruhr               #
                  #                      Germany                        #
                  #                                                     #
                  #                  All rights reserved                #
                  #                        -***-                        #
                  #######################################################


                         Program Version 5.0.2 -  RELEASE  -


 With contributions from (in alphabetic order):
   Daniel Aravena         : Magnetic Suceptibility
   Michael Atanasov       : Ab Initio Ligand Field Theory (pilot matlab implementation)
   Alexander A. Auer      : GIAO ZORA, VPT2 properties, NMR spectrum
   Ute Becker             : Parallelization
   Giovanni Bistoni       : ED, misc. LED, open-shell LED, HFLD
   Martin Brehm           : Molecular dynamics
   Dmytro Bykov           : SCF Hessian
   Vijay G. Chilkuri      : MRCI spin determinant printing, contributions to CSF-ICE
   Dipayan Datta          : RHF DLPNO-CCSD density
   Achintya Kumar Dutta   : EOM-CC, STEOM-CC
   Dmitry Ganyushin       : Spin-Orbit,Spin-Spin,Magnetic field MRCI
   Miquel Garcia          : C-PCM and meta-GGA Hessian, CC/C-PCM, Gaussian charge scheme
   Yang Guo               : DLPNO-NEVPT2, F12-NEVPT2, CIM, IAO-localization
   Andreas Hansen         : Spin unrestricted coupled pair/coupled cluster methods
   Benjamin Helmich-Paris : MC-RPA, TRAH-SCF, COSX integrals
   Lee Huntington         : MR-EOM, pCC
   Robert Izsak           : Overlap fitted RIJCOSX, COSX-SCS-MP3, EOM
   Marcus Kettner         : VPT2
   Christian Kollmar      : KDIIS, OOCD, Brueckner-CCSD(T), CCSD density, CASPT2, CASPT2-K
   Simone Kossmann        : Meta GGA functionals, TD-DFT gradient, OOMP2, MP2 Hessian
   Martin Krupicka        : Initial AUTO-CI
   Lucas Lang             : DCDCAS
   Marvin Lechner         : AUTO-CI (C++ implementation), FIC-MRCC
   Dagmar Lenk            : GEPOL surface, SMD
   Dimitrios Liakos       : Extrapolation schemes; Compound Job, initial MDCI parallelization
   Dimitrios Manganas     : Further ROCIS development; embedding schemes
   Dimitrios Pantazis     : SARC Basis sets
   Anastasios Papadopoulos: AUTO-CI, single reference methods and gradients
   Taras Petrenko         : DFT Hessian,TD-DFT gradient, ASA, ECA, R-Raman, ABS, FL, XAS/XES, NRVS
   Peter Pinski           : DLPNO-MP2, DLPNO-MP2 Gradient
   Christoph Reimann      : Effective Core Potentials
   Marius Retegan         : Local ZFS, SOC
   Christoph Riplinger    : Optimizer, TS searches, QM/MM, DLPNO-CCSD(T), (RO)-DLPNO pert. Triples
   Tobias Risthaus        : Range-separated hybrids, TD-DFT gradient, RPA, STAB
   Michael Roemelt        : Original ROCIS implementation
   Masaaki Saitow         : Open-shell DLPNO-CCSD energy and density
   Barbara Sandhoefer     : DKH picture change effects
   Avijit Sen             : IP-ROCIS
   Kantharuban Sivalingam : CASSCF convergence, NEVPT2, FIC-MRCI
   Bernardo de Souza      : ESD, SOC TD-DFT
   Georgi Stoychev        : AutoAux, RI-MP2 NMR, DLPNO-MP2 response
   Willem Van den Heuvel  : Paramagnetic NMR
   Boris Wezisla          : Elementary symmetry handling
   Frank Wennmohs         : Technical directorship


 We gratefully acknowledge several colleagues who have allowed us to
 interface, adapt or use parts of their codes:
   Stefan Grimme, W. Hujo, H. Kruse, P. Pracht,  : VdW corrections, initial TS optimization,
                  C. Bannwarth, S. Ehlert          DFT functionals, gCP, sTDA/sTD-DF
   Ed Valeev, F. Pavosevic, A. Kumar             : LibInt (2-el integral package), F12 methods
   Garnet Chan, S. Sharma, J. Yang, R. Olivares  : DMRG
   Ulf Ekstrom                                   : XCFun DFT Library
   Mihaly Kallay                                 : mrcc  (arbitrary order and MRCC methods)
   Jiri Pittner, Ondrej Demel                    : Mk-CCSD
   Frank Weinhold                                : gennbo (NPA and NBO analysis)
   Christopher J. Cramer and Donald G. Truhlar   : smd solvation model
   Lars Goerigk                                  : TD-DFT with DH, B97 family of functionals
   V. Asgeirsson, H. Jonsson                     : NEB implementation
   FAccTs GmbH                                   : IRC, NEB, NEB-TS, DLPNO-Multilevel, CI-OPT
                                                   MM, QMMM, 2- and 3-layer-ONIOM, Crystal-QMMM,
                                                   LR-CPCM, SF, NACMEs, symmetry and pop. for TD-DFT,
                                                   nearIR, NL-DFT gradient (VV10), updates on ESD,
                                                   ML-optimized integration grids
   S Lehtola, MJT Oliveira, MAL Marques          : LibXC Library
   Liviu Ungur et al                             : ANISO software


 Your calculation uses the libint2 library for the computation of 2-el integrals
 For citations please refer to: http://libint.valeyev.net

 Your ORCA version has been built with support for libXC version: 5.1.0
 For citations please refer to: https://tddft.org/programs/libxc/

 This ORCA versions uses:
   CBLAS   interface :  Fast vector & matrix operations
   LAPACKE interface :  Fast linear algebra routines
   SCALAPACK package :  Parallel linear algebra routines
   Shared memory     :  Shared parallel matrices
   BLAS/LAPACK       :  OpenBLAS 0.3.15  USE64BITINT DYNAMIC_ARCH NO_AFFINITY SkylakeX SINGLE_THREADED
        Core in use  :  SkylakeX
   Copyright (c) 2011-2014, The OpenBLAS Project


Your calculation utilizes the atom-pairwise dispersion correction
with the Becke-Johnson damping scheme (D3BJ)
Cite in your paper:
S.Grimme, S.Ehrlich, L.Goerigk, J Comput Chem, (2011), 32, 1456–1465 
S.Grimme, J.Antony, S.Ehrlich and H.Krieg, J.Chem.Phys., 132, (2010), 154104 
   

================================================================================

----- Orbital basis set information -----
Your calculation utilizes the basis: def2-TZVP
   F. Weigend and R. Ahlrichs, Phys. Chem. Chem. Phys. 7, 3297 (2005).

----- AuxJ basis set information -----
Your calculation utilizes the auxiliary basis: def2/J
   F. Weigend, Phys. Chem. Chem. Phys. 8, 1057 (2006).

================================================================================
                                        WARNINGS
                       Please study these warnings very carefully!
================================================================================


INFO   : the flag for use of the SHARK integral package has been found!

================================================================================
                                       INPUT FILE
================================================================================
NAME = ox_gs_D_orca0009.inp
|  1> ! engrad PBE0 D3BJ def2-TZVP  
|  2> %pal nprocs 8 end
|  3> %maxcore 3000
|  4>  
|  5> *xyz 0 1 
|  6> O   -0.7003281369886335 1.0187915657509474 -0.00756131346069167
|  7> C   -0.7267208673885225 -0.4463016489593597 -0.08761409785670776
|  8> C   0.722030436183964 -0.36528409409950086 0.04308768235781015
|  9> H   -1.3230985757699418 -0.6496307597864546 0.938384703151791
| 10> H   -1.2489582391911258 -0.7241927076034601 -0.958574853775341
| 11> H   1.1296332799785576 -0.724343676477661 -0.9750384197278519
| 12> H   1.2321309123700512 -0.6897284487021672 0.9973765879381519
| 13> *
| 14> 
| 15>                          ****END OF INPUT****
================================================================================

                     *******************************
                     * Energy+Gradient Calculation *
                     *******************************

---------------------------------
CARTESIAN COORDINATES (ANGSTROEM)
---------------------------------
  O     -0.700328    1.018792   -0.007561
  C     -0.726721   -0.446302   -0.087614
  C      0.722030   -0.365284    0.043088
  H     -1.323099   -0.649631    0.938385
  H     -1.248958   -0.724193   -0.958575
  H      1.129633   -0.724344   -0.975038
  H      1.232131   -0.689728    0.997377

----------------------------
CARTESIAN COORDINATES (A.U.)
----------------------------
  NO LB      ZA    FRAG     MASS         X           Y           Z
   0 O     8.0000    0    15.999   -1.323428    1.925237   -0.014289
   1 C     6.0000    0    12.011   -1.373303   -0.843388   -0.165567
   2 C     6.0000    0    12.011    1.364440   -0.690287    0.081424
   3 H     1.0000    0     1.008   -2.500294   -1.227624    1.773290
   4 H     1.0000    0     1.008   -2.360189   -1.368526   -1.811444
   5 H     1.0000    0     1.008    2.134698   -1.368811   -1.842556
   6 H     1.0000    0     1.008    2.328390   -1.303398    1.884769

--------------------------------
INTERNAL COORDINATES (ANGSTROEM)
--------------------------------
 O      0   0   0     0.000000000000     0.00000000     0.00000000
 C      1   0   0     1.467515980253     0.00000000     0.00000000
 C      2   1   0     1.456889542536    85.50936585     0.00000000
 H      2   1   3     1.204027673285    97.52850308   114.84325595
 H      2   1   3     1.052866540133   108.51468256   233.87853818
 H      3   2   1     1.153969073119   104.76113444   247.27816756
 H      3   2   1     1.129660989126   120.58683074   108.50373163

---------------------------
INTERNAL COORDINATES (A.U.)
---------------------------
 O      0   0   0     0.000000000000     0.00000000     0.00000000
 C      1   0   0     2.773203299831     0.00000000     0.00000000
 C      2   1   0     2.753122242766    85.50936585     0.00000000
 H      2   1   3     2.275282560170    97.52850308   114.84325595
 H      2   1   3     1.989629416421   108.51468256   233.87853818
 H      3   2   1     2.180685515210   104.76113444   247.27816756
 H      3   2   1     2.134749893622   120.58683074   108.50373163

---------------------
BASIS SET INFORMATION
---------------------
There are 3 groups of distinct atoms

 Group   1 Type O   : 11s6p2d1f contracted to 5s3p2d1f pattern {62111/411/11/1}
 Group   2 Type C   : 11s6p2d1f contracted to 5s3p2d1f pattern {62111/411/11/1}
 Group   3 Type H   : 5s1p contracted to 3s1p pattern {311/1}

Atom   0O    basis set group =>   1
Atom   1C    basis set group =>   2
Atom   2C    basis set group =>   2
Atom   3H    basis set group =>   3
Atom   4H    basis set group =>   3
Atom   5H    basis set group =>   3
Atom   6H    basis set group =>   3
---------------------------------
AUXILIARY/J BASIS SET INFORMATION
---------------------------------
There are 3 groups of distinct atoms

 Group   1 Type O   : 12s5p4d2f1g contracted to 6s4p3d1f1g pattern {711111/2111/211/2/1}
 Group   2 Type C   : 12s5p4d2f1g contracted to 6s4p3d1f1g pattern {711111/2111/211/2/1}
 Group   3 Type H   : 5s2p1d contracted to 3s1p1d pattern {311/2/1}

Atom   0O    basis set group =>   1
Atom   1C    basis set group =>   2
Atom   2C    basis set group =>   2
Atom   3H    basis set group =>   3
Atom   4H    basis set group =>   3
Atom   5H    basis set group =>   3
Atom   6H    basis set group =>   3


           ************************************************************
           *        Program running with 8 parallel MPI-processes     *
           *              working on a common directory               *
           ************************************************************
------------------------------------------------------------------------------
                           ORCA GTO INTEGRAL CALCULATION
                           -- RI-GTO INTEGRALS CHOSEN --
------------------------------------------------------------------------------
------------------------------------------------------------------------------
                   ___                                                        
                  /   \      - P O W E R E D   B Y -                         
                 /     \                                                     
                 |  |  |   _    _      __       _____    __    __             
                 |  |  |  | |  | |    /  \     |  _  \  |  |  /  |          
                  \  \/   | |  | |   /    \    | | | |  |  | /  /          
                 / \  \   | |__| |  /  /\  \   | |_| |  |  |/  /          
                |  |  |   |  __  | /  /__\  \  |    /   |      \           
                |  |  |   | |  | | |   __   |  |    \   |  |\   \          
                \     /   | |  | | |  |  |  |  | |\  \  |  | \   \       
                 \___/    |_|  |_| |__|  |__|  |_| \__\ |__|  \__/        
                                                                              
                      - O R C A' S   B I G   F R I E N D -                    
                                      &                                       
                       - I N T E G R A L  F E E D E R -                       
                                                                              
 v1 FN, 2020, v2 2021                                                         
------------------------------------------------------------------------------


Reading SHARK input file ox_gs_D_orca0009.SHARKINP.tmp ... ok
----------------------
SHARK INTEGRAL PACKAGE
----------------------

Number of atoms                             ...      7
Number of basis functions                   ...    117
Number of shells                            ...     49
Maximum angular momentum                    ...      3
Integral batch strategy                     ... SHARK/LIBINT Hybrid
RI-J (if used) integral strategy            ... SPLIT-RIJ (Revised 2003 algorithm where possible)
Printlevel                                  ...      1
Contraction scheme used                     ... SEGMENTED contraction
Coulomb Range Separation                    ... NOT USED
Exchange Range Separation                   ... NOT USED
Finite Nucleus Model                        ... NOT USED
Auxiliary Coulomb fitting basis             ... AVAILABLE
   # of basis functions in Aux-J            ...    191
   # of shells in Aux-J                     ...     65
   Maximum angular momentum in Aux-J        ...      4
Auxiliary J/K fitting basis                 ... NOT available
Auxiliary Correlation fitting basis         ... NOT available
Auxiliary 'external' fitting basis          ... NOT available
Integral threshold                          ...     2.500000e-11
Primitive cut-off                           ...     2.500000e-12
Primitive pair pre-selection threshold      ...     2.500000e-12

Calculating pre-screening integrals         ... done (  0.0 sec) Dimension = 49
Organizing shell pair data                  ... done (  0.0 sec)
Shell pair information
Total number of shell pairs                 ...      1225
Shell pairs after pre-screening             ...      1216
Total number of primitive shell pairs       ...      3648
Primitive shell pairs kept                  ...      3095
          la=0 lb=0:    369 shell pairs
          la=1 lb=0:    351 shell pairs
          la=1 lb=1:     91 shell pairs
          la=2 lb=0:    162 shell pairs
          la=2 lb=1:     78 shell pairs
          la=2 lb=2:     21 shell pairs
          la=3 lb=0:     81 shell pairs
          la=3 lb=1:     39 shell pairs
          la=3 lb=2:     18 shell pairs
          la=3 lb=3:      6 shell pairs

Calculating one electron integrals          ... done (  0.0 sec)
Calculating RI/J V-Matrix + Cholesky decomp.... done (  0.0 sec)
Calculating Nuclear repulsion               ... done (  0.0 sec) ENN=     68.722434060998 Eh

SHARK setup successfully completed in   0.1 seconds

Maximum memory used throughout the entire GTOINT-calculation: 14.9 MB


           ************************************************************
           *        Program running with 8 parallel MPI-processes     *
           *              working on a common directory               *
           ************************************************************
-------------------------------------------------------------------------------
                                 ORCA SCF
-------------------------------------------------------------------------------

------------
SCF SETTINGS
------------
Hamiltonian:
 Density Functional     Method          .... DFT(GTOs)
 Exchange Functional    Exchange        .... PBE
   PBE kappa parameter   XKappa         ....  0.804000
   PBE mue parameter    XMuePBE         ....  0.219520
 Correlation Functional Correlation     .... PBE
   PBE beta parameter  CBetaPBE         ....  0.066725
 LDA part of GGA corr.  LDAOpt          .... PW91-LDA
 Gradients option       PostSCFGGA      .... off
 Hybrid DFT is turned on
   Fraction HF Exchange ScalHFX         ....  0.250000
   Scaling of DF-GGA-X  ScalDFX         ....  0.750000
   Scaling of DF-GGA-C  ScalDFC         ....  1.000000
   Scaling of DF-LDA-C  ScalLDAC        ....  1.000000
   Perturbative correction              ....  0.000000
   Density functional embedding theory  .... OFF
   NL short-range parameter             ....  6.900000
 RI-approximation to the Coulomb term is turned on
   Number of AuxJ basis functions       .... 191
   RIJ-COSX (HFX calculated with COS-X)).... on


General Settings:
 Integral files         IntName         .... ox_gs_D_orca0009
 Hartree-Fock type      HFTyp           .... RHF
 Total Charge           Charge          ....    0
 Multiplicity           Mult            ....    1
 Number of Electrons    NEL             ....   24
 Basis Dimension        Dim             ....  117
 Nuclear Repulsion      ENuc            ....     68.7224340610 Eh

Convergence Acceleration:
 DIIS                   CNVDIIS         .... on
   Start iteration      DIISMaxIt       ....    12
   Startup error        DIISStart       ....  0.200000
   # of expansion vecs  DIISMaxEq       ....     5
   Bias factor          DIISBfac        ....   1.050
   Max. coefficient     DIISMaxC        ....  10.000
 Trust-Rad. Augm. Hess. CNVTRAH         .... auto
   Auto Start mean grad. ratio tolernc. ....  1.125000
   Auto Start start iteration           ....    20
   Auto Start num. interpolation iter.  ....    10
   Max. Number of Micro iterations      ....    16
   Max. Number of Macro iterations      .... Maxiter - #DIIS iter
   Number of Davidson start vectors     ....     2
   Converg. threshold I  (grad. norm)   ....   1.000e-05
   Converg. threshold II (energy diff.) ....   1.000e-08
   Grad. Scal. Fac. for Micro threshold ....   0.100
   Minimum threshold for Micro iter.    ....   0.010
   NR start threshold (gradient norm)   ....   0.001
   Initial trust radius                 ....   0.400
   Minimum AH scaling param. (alpha)    ....   1.000
   Maximum AH scaling param. (alpha)    .... 1000.000
   Orbital update algorithm             .... Taylor
   White noise on init. David. guess    .... on
   Maximum white noise                  ....   0.010
   Quad. conv. algorithm                .... NR
 SOSCF                  CNVSOSCF        .... on
   Start iteration      SOSCFMaxIt      ....   150
   Startup grad/error   SOSCFStart      ....  0.003300
 Level Shifting         CNVShift        .... on
   Level shift para.    LevelShift      ....    0.2500
   Turn off err/grad.   ShiftErr        ....    0.0010
 Zerner damping         CNVZerner       .... off
 Static damping         CNVDamp         .... on
   Fraction old density DampFac         ....    0.7000
   Max. Damping (<1)    DampMax         ....    0.9800
   Min. Damping (>=0)   DampMin         ....    0.0000
   Turn off err/grad.   DampErr         ....    0.1000
 Fernandez-Rico         CNVRico         .... off

SCF Procedure:
 Maximum # iterations   MaxIter         ....   125
 SCF integral mode      SCFMode         .... Direct
   Integral package                     .... SHARK and LIBINT hybrid scheme
 Reset frequency        DirectResetFreq ....    20
 Integral Threshold     Thresh          ....  2.500e-11 Eh
 Primitive CutOff       TCut            ....  2.500e-12 Eh

Convergence Tolerance:
 Convergence Check Mode ConvCheckMode   .... Total+1el-Energy
 Convergence forced     ConvForced      .... 0
 Energy Change          TolE            ....  1.000e-08 Eh
 1-El. energy change                    ....  1.000e-05 Eh
 Orbital Gradient       TolG            ....  1.000e-05
 Orbital Rotation angle TolX            ....  1.000e-05
 DIIS Error             TolErr          ....  5.000e-07


Diagonalization of the overlap matrix:
Smallest eigenvalue                        ... 4.264e-04
Time for diagonalization                   ...    0.001 sec
Threshold for overlap eigenvalues          ... 1.000e-08
Number of eigenvalues below threshold      ... 0
Time for construction of square roots      ...    0.001 sec
Total time needed                          ...    0.003 sec

Time for model grid setup =    0.022 sec

------------------------------
INITIAL GUESS: MODEL POTENTIAL
------------------------------
Loading Hartree-Fock densities                     ... done
Calculating cut-offs                               ... done
Initializing the effective Hamiltonian             ... done
Setting up the integral package (SHARK)            ... done
Starting the Coulomb interaction                   ... done (   0.0 sec)
Reading the grid                                   ... done
Mapping shells                                     ... done
Starting the XC term evaluation                    ... done (   0.0 sec)
  promolecular density results
     # of electrons  =     23.999004810
     EX              =    -19.427726513
     EC              =     -0.763871866
     EX+EC           =    -20.191598378
Transforming the Hamiltonian                       ... done (   0.0 sec)
Diagonalizing the Hamiltonian                      ... done (   0.0 sec)
Back transforming the eigenvectors                 ... done (   0.0 sec)
Now organizing SCF variables                       ... done
                      ------------------
                      INITIAL GUESS DONE (   0.0 sec)
                      ------------------
-------------------
DFT GRID GENERATION
-------------------

General Integration Accuracy     IntAcc      ... 4.388
Radial Grid Type                 RadialGrid  ... OptM3 with GC (2021)
Angular Grid (max. ang.)         AngularGrid ... 4 (Lebedev-302)
Angular grid pruning method      GridPruning ... 4 (adaptive)
Weight generation scheme         WeightScheme... Becke
Basis function cutoff            BFCut       ... 1.0000e-11
Integration weight cutoff        WCut        ... 1.0000e-14
Angular grids for H and He will be reduced by one unit
Partially contracted basis set               ... off
Rotationally invariant grid construction     ... off

Total number of grid points                  ...    31333
Total number of batches                      ...      493
Average number of points per batch           ...       63
Average number of grid points per atom       ...     4476
Time for grid setup =    0.110 sec

--------------------
COSX GRID GENERATION
--------------------

GRIDX 1
-------
General Integration Accuracy     IntAcc      ... 3.816
Radial Grid Type                 RadialGrid  ... OptM3 with GC (2021)
Angular Grid (max. ang.)         AngularGrid ... 1 (Lebedev-50)
Angular grid pruning method      GridPruning ... 4 (adaptive)
Weight generation scheme         WeightScheme... Becke
Basis function cutoff            BFCut       ... 1.0000e-11
Integration weight cutoff        WCut        ... 1.0000e-14
Angular grids for H and He will be reduced by one unit
Partially contracted basis set               ... on
Rotationally invariant grid construction     ... off

Total number of grid points                  ...     4028
Total number of batches                      ...       67
Average number of points per batch           ...       60
Average number of grid points per atom       ...      575
UseSFitting                                  ... on

GRIDX 2
-------
General Integration Accuracy     IntAcc      ... 4.020
Radial Grid Type                 RadialGrid  ... OptM3 with GC (2021)
Angular Grid (max. ang.)         AngularGrid ... 2 (Lebedev-110)
Angular grid pruning method      GridPruning ... 4 (adaptive)
Weight generation scheme         WeightScheme... Becke
Basis function cutoff            BFCut       ... 1.0000e-11
Integration weight cutoff        WCut        ... 1.0000e-14
Angular grids for H and He will be reduced by one unit
Partially contracted basis set               ... on
Rotationally invariant grid construction     ... off

Total number of grid points                  ...     8715
Total number of batches                      ...      140
Average number of points per batch           ...       62
Average number of grid points per atom       ...     1245
UseSFitting                                  ... on

GRIDX 3
-------
General Integration Accuracy     IntAcc      ... 4.338
Radial Grid Type                 RadialGrid  ... OptM3 with GC (2021)
Angular Grid (max. ang.)         AngularGrid ... 3 (Lebedev-194)
Angular grid pruning method      GridPruning ... 4 (adaptive)
Weight generation scheme         WeightScheme... Becke
Basis function cutoff            BFCut       ... 1.0000e-11
Integration weight cutoff        WCut        ... 1.0000e-14
Angular grids for H and He will be reduced by one unit
Partially contracted basis set               ... on
Rotationally invariant grid construction     ... off

Total number of grid points                  ...    19252
Total number of batches                      ...      304
Average number of points per batch           ...       63
Average number of grid points per atom       ...     2750
UseSFitting                                  ... on

Time for X-Grid setup             =    0.077 sec

--------------
SCF ITERATIONS
--------------
ITER       Energy         Delta-E        Max-DP      RMS-DP      [F,P]     Damp
               ***  Starting incremental Fock matrix formation  ***
  0   -153.4579300447   0.000000000000 0.06426371  0.00175818  0.2760913 0.7000
  1   -153.5145322228  -0.056602178040 0.03731663  0.00105257  0.0813808 0.7000
                               ***Turning on DIIS***
  2   -153.5271534377  -0.012621214905 0.03065229  0.00137673  0.0422797 0.0000
  3   -153.5611212313  -0.033967793574 0.02384345  0.00089190  0.0346061 0.0000
  4   -153.5633867805  -0.002265549237 0.00957540  0.00029101  0.0427459 0.0000
  5   -153.5654196864  -0.002032905853 0.00237903  0.00007627  0.0074656 0.0000
  6   -153.5654940291  -0.000074342776 0.00105769  0.00003131  0.0033238 0.0000
                      *** Initiating the SOSCF procedure ***
                           *** Shutting down DIIS ***
                      *** Re-Reading the Fockian *** 
                      *** Removing any level shift *** 
ITER      Energy       Delta-E        Grad      Rot      Max-DP    RMS-DP
  7   -153.56550616  -0.0000121337  0.000293  0.000293  0.000647  0.000027
               *** Restarting incremental Fock matrix formation ***
  8   -153.56550743  -0.0000012666  0.000270  0.001360  0.000767  0.000024
  9   -153.56550332   0.0000041068  0.000955  0.001164  0.000697  0.000017
 10   -153.56550815  -0.0000048319  0.000063  0.000161  0.000103  0.000005
 11   -153.56550813   0.0000000211  0.000076  0.000054  0.000063  0.000002
 12   -153.56550822  -0.0000000892  0.000008  0.000056  0.000018  0.000001
 13   -153.56550822  -0.0000000014  0.000003  0.000041  0.000013  0.000000
                  ***Gradient check signals convergence***
              ***Rediagonalizing the Fockian in SOSCF/NRSCF***

               *****************************************************
               *                     SUCCESS                       *
               *           SCF CONVERGED AFTER  14 CYCLES          *
               *****************************************************

Old exchange energy                            =     -4.938299187 Eh
New exchange energy                            =     -4.938307240 Eh
Exchange energy change after final integration =     -0.000008052 Eh
Total energy after final integration           =   -153.565516277 Eh
Final COS-X integration done in                =     0.305 sec

----------------
TOTAL SCF ENERGY
----------------

Total Energy       :         -153.56551628 Eh           -4178.73014 eV

Components:
Nuclear Repulsion  :           68.72243406 Eh            1870.03250 eV
Electronic Energy  :         -222.28795034 Eh           -6048.76264 eV
One Electron Energy:         -344.33445692 Eh           -9369.81693 eV
Two Electron Energy:          122.04650659 Eh            3321.05428 eV
Max COSX asymmetry :            0.00000108 Eh               0.00003 eV

Virial components:
Potential Energy   :         -306.01409979 Eh           -8327.06700 eV
Kinetic Energy     :          152.44858351 Eh            4148.33685 eV
Virial Ratio       :            2.00732662


DFT components:
N(Alpha)           :       12.000007032207 electrons
N(Beta)            :       12.000007032207 electrons
N(Total)           :       24.000014064414 electrons
E(X)               :      -14.827520694716 Eh       
E(C)               :       -0.771771605628 Eh       
E(XC)              :      -15.599292300344 Eh       
DFET-embed. en.    :        0.000000000000 Eh       

---------------
SCF CONVERGENCE
---------------

  Last Energy change         ...   -1.0192e-09  Tolerance :   1.0000e-08
  Last MAX-Density change    ...    4.4409e-16  Tolerance :   1.0000e-07
  Last RMS-Density change    ...    1.7060e-17  Tolerance :   5.0000e-09
  Last Orbital Gradient      ...    1.7779e-06  Tolerance :   1.0000e-05
  Last Orbital Rotation      ...    6.3845e-06  Tolerance :   1.0000e-05

             **** THE GBW FILE WAS UPDATED (ox_gs_D_orca0009.gbw) ****
             **** DENSITY ox_gs_D_orca0009.scfp WAS UPDATED ****
             **** ENERGY FILE WAS UPDATED (ox_gs_D_orca0009.en.tmp) ****
             **** THE GBW FILE WAS UPDATED (ox_gs_D_orca0009.gbw) ****
             **** DENSITY ox_gs_D_orca0009.scfp WAS UPDATED ****
----------------
ORBITAL ENERGIES
----------------

  NO   OCC          E(Eh)            E(eV) 
   0   2.0000     -19.219115      -522.9787 
   1   2.0000     -10.319050      -280.7956 
   2   2.0000     -10.281231      -279.7665 
   3   2.0000      -1.000114       -27.2145 
   4   2.0000      -0.757364       -20.6089 
   5   2.0000      -0.620504       -16.8848 
   6   2.0000      -0.510789       -13.8993 
   7   2.0000      -0.479750       -13.0547 
   8   2.0000      -0.402563       -10.9543 
   9   2.0000      -0.387732       -10.5507 
  10   2.0000      -0.301812        -8.2127 
  11   2.0000      -0.269568        -7.3353 
  12   0.0000      -0.103351        -2.8123 
  13   0.0000       0.043716         1.1896 
  14   0.0000       0.072445         1.9713 
  15   0.0000       0.081262         2.2112 
  16   0.0000       0.106869         2.9080 
  17   0.0000       0.145047         3.9469 
  18   0.0000       0.180967         4.9244 
  19   0.0000       0.191414         5.2086 
  20   0.0000       0.239448         6.5157 
  21   0.0000       0.265346         7.2204 
  22   0.0000       0.275715         7.5026 
  23   0.0000       0.313254         8.5241 
  24   0.0000       0.333281         9.0690 
  25   0.0000       0.383174        10.4267 
  26   0.0000       0.398573        10.8457 
  27   0.0000       0.407230        11.0813 
  28   0.0000       0.412935        11.2365 
  29   0.0000       0.479304        13.0425 
  30   0.0000       0.496794        13.5185 
  31   0.0000       0.517314        14.0768 
  32   0.0000       0.546163        14.8619 
  33   0.0000       0.630217        17.1491 
  34   0.0000       0.678283        18.4570 
  35   0.0000       0.759214        20.6593 
  36   0.0000       0.795851        21.6562 
  37   0.0000       0.853787        23.2327 
  38   0.0000       0.886143        24.1132 
  39   0.0000       0.915420        24.9098 
  40   0.0000       0.940636        25.5960 
  41   0.0000       1.022485        27.8232 
  42   0.0000       1.057553        28.7775 
  43   0.0000       1.078773        29.3549 
  44   0.0000       1.142600        31.0917 
  45   0.0000       1.336314        36.3629 
  46   0.0000       1.394154        37.9369 
  47   0.0000       1.444494        39.3067 
  48   0.0000       1.497763        40.7562 
  49   0.0000       1.529751        41.6267 
  50   0.0000       1.587715        43.2039 
  51   0.0000       1.595253        43.4090 
  52   0.0000       1.620319        44.0911 
  53   0.0000       1.666633        45.3514 
  54   0.0000       1.702686        46.3324 
  55   0.0000       1.766371        48.0654 
  56   0.0000       1.799483        48.9664 
  57   0.0000       1.845752        50.2255 
  58   0.0000       1.874866        51.0177 
  59   0.0000       1.909307        51.9549 
  60   0.0000       1.997014        54.3415 
  61   0.0000       2.061734        56.1026 
  62   0.0000       2.089433        56.8564 
  63   0.0000       2.191448        59.6323 
  64   0.0000       2.289758        62.3075 
  65   0.0000       2.356672        64.1283 
  66   0.0000       2.381803        64.8122 
  67   0.0000       2.412958        65.6599 
  68   0.0000       2.460024        66.9406 
  69   0.0000       2.481065        67.5132 
  70   0.0000       2.503493        68.1235 
  71   0.0000       2.536421        69.0195 
  72   0.0000       2.605840        70.9085 
  73   0.0000       2.684201        73.0408 
  74   0.0000       2.751918        74.8835 
  75   0.0000       2.830321        77.0170 
  76   0.0000       2.846242        77.4502 
  77   0.0000       2.909462        79.1705 
  78   0.0000       2.949824        80.2688 
  79   0.0000       3.005359        81.7800 
  80   0.0000       3.047150        82.9172 
  81   0.0000       3.097816        84.2959 
  82   0.0000       3.100749        84.3757 
  83   0.0000       3.143050        85.5267 
  84   0.0000       3.147294        85.6422 
  85   0.0000       3.185044        86.6695 
  86   0.0000       3.342157        90.9447 
  87   0.0000       3.378503        91.9337 
  88   0.0000       3.442679        93.6801 
  89   0.0000       3.485808        94.8537 
  90   0.0000       3.588765        97.6553 
  91   0.0000       3.645502        99.1991 
  92   0.0000       3.695220       100.5521 
  93   0.0000       3.828362       104.1750 
  94   0.0000       3.870431       105.3198 
  95   0.0000       4.046193       110.1025 
  96   0.0000       4.105022       111.7033 
  97   0.0000       4.229116       115.0801 
  98   0.0000       4.362369       118.7061 
  99   0.0000       4.489522       122.1661 
 100   0.0000       4.576224       124.5254 
 101   0.0000       4.699705       127.8855 
 102   0.0000       5.214935       141.9056 
 103   0.0000       5.240948       142.6134 
 104   0.0000       5.340646       145.3264 
 105   0.0000       5.360421       145.8645 
 106   0.0000       5.677721       154.4986 
 107   0.0000       5.700638       155.1222 
 108   0.0000       5.877615       159.9380 
 109   0.0000       6.373769       173.4391 
 110   0.0000       6.458092       175.7336 
 111   0.0000       6.739616       183.3943 
 112   0.0000       6.841275       186.1606 
 113   0.0000       6.974927       189.7974 
 114   0.0000      21.985234       598.2486 
 115   0.0000      22.308367       607.0415 
 116   0.0000      43.664260      1188.1649 

                    ********************************
                    * MULLIKEN POPULATION ANALYSIS *
                    ********************************

-----------------------
MULLIKEN ATOMIC CHARGES
-----------------------
   0 O :   -0.350167
   1 C :   -0.053484
   2 C :   -0.152697
   3 H :    0.106550
   4 H :    0.131078
   5 H :    0.151580
   6 H :    0.167140
Sum of atomic charges:   -0.0000000

--------------------------------
MULLIKEN REDUCED ORBITAL CHARGES
--------------------------------
  0 O s       :     3.916938  s :     3.916938
      pz      :     1.906251  p :     4.409056
      px      :     1.272767
      py      :     1.230038
      dz2     :     0.003301  d :     0.023009
      dxz     :     0.000364
      dyz     :     0.004564
      dx2y2   :     0.007927
      dxy     :     0.006852
      f0      :     0.000133  f :     0.001165
      f+1     :     0.000067
      f-1     :     0.000291
      f+2     :     0.000128
      f-2     :     0.000025
      f+3     :     0.000244
      f-3     :     0.000276
  1 C s       :     3.204458  s :     3.204458
      pz      :     1.062977  p :     2.695820
      px      :     0.915914
      py      :     0.716930
      dz2     :     0.010391  d :     0.143324
      dxz     :     0.022341
      dyz     :     0.042545
      dx2y2   :     0.024385
      dxy     :     0.043663
      f0      :     0.001595  f :     0.009882
      f+1     :     0.001151
      f-1     :     0.000807
      f+2     :     0.002732
      f-2     :     0.000165
      f+3     :     0.002045
      f-3     :     0.001386
  2 C s       :     3.307736  s :     3.307736
      pz      :     1.016854  p :     2.777397
      px      :     0.992602
      py      :     0.767941
      dz2     :     0.008880  d :     0.062335
      dxz     :     0.020062
      dyz     :     0.008173
      dx2y2   :     0.007911
      dxy     :     0.017308
      f0      :     0.000666  f :     0.005230
      f+1     :     0.000933
      f-1     :     0.000276
      f+2     :     0.000632
      f-2     :     0.000432
      f+3     :     0.000990
      f-3     :     0.001302
  3 H s       :     0.876222  s :     0.876222
      pz      :     0.009121  p :     0.017228
      px      :     0.004951
      py      :     0.003156
  4 H s       :     0.847118  s :     0.847118
      pz      :     0.010661  p :     0.021803
      px      :     0.006736
      py      :     0.004406
  5 H s       :     0.827592  s :     0.827592
      pz      :     0.011191  p :     0.020828
      px      :     0.005259
      py      :     0.004379
  6 H s       :     0.811268  s :     0.811268
      pz      :     0.010960  p :     0.021591
      px      :     0.006193
      py      :     0.004439


                     *******************************
                     * LOEWDIN POPULATION ANALYSIS *
                     *******************************

----------------------
LOEWDIN ATOMIC CHARGES
----------------------
   0 O :   -0.057462
   1 C :   -0.393779
   2 C :   -0.089978
   3 H :    0.134556
   4 H :    0.105107
   5 H :    0.156716
   6 H :    0.144840

-------------------------------
LOEWDIN REDUCED ORBITAL CHARGES
-------------------------------
  0 O s       :     3.588074  s :     3.588074
      pz      :     1.841948  p :     4.416737
      px      :     1.233021
      py      :     1.341768
      dz2     :     0.007122  d :     0.049588
      dxz     :     0.000572
      dyz     :     0.011200
      dx2y2   :     0.016690
      dxy     :     0.014003
      f0      :     0.000280  f :     0.003063
      f+1     :     0.000096
      f-1     :     0.000548
      f+2     :     0.000532
      f-2     :     0.000033
      f+3     :     0.000901
      f-3     :     0.000674
  1 C s       :     2.848793  s :     2.848793
      pz      :     1.050721  p :     2.922070
      px      :     1.055223
      py      :     0.816125
      dz2     :     0.060971  d :     0.556436
      dxz     :     0.111652
      dyz     :     0.112588
      dx2y2   :     0.130519
      dxy     :     0.140706
      f0      :     0.009250  f :     0.066479
      f+1     :     0.005365
      f-1     :     0.006756
      f+2     :     0.014836
      f-2     :     0.001351
      f+3     :     0.013434
      f-3     :     0.015486
  2 C s       :     2.919760  s :     2.919760
      pz      :     1.057057  p :     2.892458
      px      :     1.118221
      py      :     0.717181
      dz2     :     0.036487  d :     0.249997
      dxz     :     0.094290
      dyz     :     0.023754
      dx2y2   :     0.044978
      dxy     :     0.050488
      f0      :     0.004111  f :     0.027762
      f+1     :     0.003177
      f-1     :     0.001816
      f+2     :     0.004156
      f-2     :     0.002390
      f+3     :     0.005284
      f-3     :     0.006828
  3 H s       :     0.820767  s :     0.820767
      pz      :     0.024883  p :     0.044677
      px      :     0.012143
      py      :     0.007651
  4 H s       :     0.827648  s :     0.827648
      pz      :     0.033865  p :     0.067245
      px      :     0.019999
      py      :     0.013381
  5 H s       :     0.787204  s :     0.787204
      pz      :     0.030865  p :     0.056079
      px      :     0.013519
      py      :     0.011696
  6 H s       :     0.794998  s :     0.794998
      pz      :     0.031832  p :     0.060162
      px      :     0.015939
      py      :     0.012390


                      *****************************
                      * MAYER POPULATION ANALYSIS *
                      *****************************

  NA   - Mulliken gross atomic population
  ZA   - Total nuclear charge
  QA   - Mulliken gross atomic charge
  VA   - Mayer's total valence
  BVA  - Mayer's bonded valence
  FA   - Mayer's free valence

  ATOM       NA         ZA         QA         VA         BVA        FA
  0 O      8.3502     8.0000    -0.3502     1.8680     1.8680    -0.0000
  1 C      6.0535     6.0000    -0.0535     3.9736     3.9736    -0.0000
  2 C      6.1527     6.0000    -0.1527     3.8486     3.8486    -0.0000
  3 H      0.8934     1.0000     0.1066     0.9691     0.9691    -0.0000
  4 H      0.8689     1.0000     0.1311     0.9571     0.9571    -0.0000
  5 H      0.8484     1.0000     0.1516     0.9611     0.9611    -0.0000
  6 H      0.8329     1.0000     0.1671     0.9575     0.9575     0.0000

  Mayer bond orders larger than 0.100000
B(  0-O ,  1-C ) :   0.9646 B(  0-O ,  2-C ) :   0.8868 B(  1-C ,  2-C ) :   1.0827 
B(  1-C ,  3-H ) :   0.9609 B(  1-C ,  4-H ) :   0.9565 B(  2-C ,  5-H ) :   0.9390 
B(  2-C ,  6-H ) :   0.9315 

-------
TIMINGS
-------

Total SCF time: 0 days 0 hours 0 min 3 sec 

Total time                  ....       3.557 sec
Sum of individual times     ....       3.243 sec  ( 91.2%)

Fock matrix formation       ....       2.955 sec  ( 83.1%)
  Split-RI-J                ....       0.313 sec  ( 10.6% of F)
  Chain of spheres X        ....       2.048 sec  ( 69.3% of F)
  XC integration            ....       0.563 sec  ( 19.0% of F)
    Basis function eval.    ....       0.157 sec  ( 27.8% of XC)
    Density eval.           ....       0.116 sec  ( 20.6% of XC)
    XC-Functional eval.     ....       0.033 sec  (  5.9% of XC)
    XC-Potential eval.      ....       0.195 sec  ( 34.7% of XC)
Diagonalization             ....       0.022 sec  (  0.6%)
Density matrix formation    ....       0.002 sec  (  0.1%)
Population analysis         ....       0.003 sec  (  0.1%)
Initial guess               ....       0.017 sec  (  0.5%)
Orbital Transformation      ....       0.000 sec  (  0.0%)
Orbital Orthonormalization  ....       0.000 sec  (  0.0%)
DIIS solution               ....       0.018 sec  (  0.5%)
SOSCF solution              ....       0.017 sec  (  0.5%)
Grid generation             ....       0.209 sec  (  5.9%)

Maximum memory used throughout the entire SCF-calculation: 61.0 MB


-------------------------------------------------------------------------------
                          DFT DISPERSION CORRECTION                            
                                                                               
                              DFTD3 V3.1  Rev 1                                
                          USING Becke-Johnson damping                          
-------------------------------------------------------------------------------
The PBE0 functional is recognized
Active option DFTDOPT                   ...         4   

molecular C6(AA) [au] = 391.755912 


            DFT-D V3
 parameters
 s6 scaling factor         :     1.0000 
 a1 scaling factor         :     0.4145 
 s8 scaling factor         :     1.2177 
 a2 scaling factor         :     4.8593 
 ad hoc parameters k1-k3   :    16.0000     1.3333    -4.0000 

 Edisp/kcal,au: -1.648794890425  -0.002627521627 
 E6   /kcal   :  -1.076383138 
 E8   /kcal   :  -0.572411752 
 % E8         :  34.716977556 

-------------------------   ----------------
Dispersion correction           -0.002627522
-------------------------   ----------------


-------------------------   --------------------
FINAL SINGLE POINT ENERGY      -153.568143799126
-------------------------   --------------------



           ************************************************************
           *        Program running with 8 parallel MPI-processes     *
           *              working on a common directory               *
           ************************************************************
------------------------------------------------------------------------------
                         ORCA SCF GRADIENT CALCULATION
------------------------------------------------------------------------------

 ... reading COSX grid (gridx3)
Gradient of the Kohn-Sham DFT energy:
Kohn-Sham wavefunction type      ... RKS
Hartree-Fock exchange scaling    ...    0.250
Number of operators              ...    1
Number of atoms                  ...    7
Basis set dimensions             ...  117
Integral neglect threshold       ... 2.5e-11
Integral primitive cutoff        ... 2.5e-12
SHARK Integral package           ... ON

Nuc. rep. gradient       (SHARK) ... done (  0.0 sec)
HCore & Overlap gradient (SHARK) ... done (  0.0 sec)
RI-J gradient            (SHARK) ... done (  0.1 sec)
COSX-gradient                    ... done (  0.4 sec)
Exchange-correlation gradient    ... done
Dispersion correction            ... done

------------------
CARTESIAN GRADIENT
------------------

   1   O   :   -0.076237050    0.049631241    0.010972864
   2   C   :    0.048940235   -0.041823577   -0.102347072
   3   C   :    0.039258905    0.017389333    0.033808033
   4   H   :   -0.023890957    0.015221429    0.047884047
   5   H   :    0.003985014    0.019440724    0.021684956
   6   H   :   -0.004896562   -0.034038980   -0.033406408
   7   H   :    0.012907592   -0.025891708    0.021490153

Difference to translation invariance:
           :    0.0000671771   -0.0000715377    0.0000865727

Difference to rotation invariance:
           :    0.0000368208   -0.0000320349   -0.0000153462

Norm of the cartesian gradient     ...    0.1831898125
RMS gradient                       ...    0.0399752944
MAX gradient                       ...    0.1023470723

-------
TIMINGS
-------

Total SCF gradient time            ...        0.786 sec

One electron gradient       ....       0.010 sec  (  1.3%)
RI-J Coulomb gradient       ....       0.086 sec  ( 10.9%)
COSX gradient               ....       0.359 sec  ( 45.7%)
XC gradient                 ....       0.174 sec  ( 22.1%)

Maximum memory used throughout the entire SCFGRAD-calculation: 35.9 MB

                            ***************************************
                            *     ORCA property calculations      *
                            ***************************************

                                    ---------------------
                                    Active property flags
                                    ---------------------
   (+) Dipole Moment


------------------------------------------------------------------------------
                       ORCA ELECTRIC PROPERTIES CALCULATION
------------------------------------------------------------------------------

Dipole Moment Calculation                       ... on
Quadrupole Moment Calculation                   ... off
Polarizability Calculation                      ... off
GBWName                                         ... ox_gs_D_orca0009.gbw
Electron density                                ... ox_gs_D_orca0009.scfp
The origin for moment calculation is the CENTER OF MASS  = (-0.492147,  0.160497 -0.028038)

-------------
DIPOLE MOMENT
-------------
                                X             Y             Z
Electronic contribution:     -0.34737       1.73624      -0.09894
Nuclear contribution   :      0.77353      -2.92045       0.05780
                        -----------------------------------------
Total Dipole Moment    :      0.42616      -1.18421      -0.04114
                        -----------------------------------------
Magnitude (a.u.)       :      1.25923
Magnitude (Debye)      :      3.20071



--------------------
Rotational spectrum 
--------------------
 
Rotational constants in cm-1:     0.982482     0.463802     0.366609 
Rotational constants in MHz : 29454.073288 13904.449092 10990.670721 

 Dipole components along the rotational axes: 
x,y,z [a.u.] :     1.117114    -0.581121    -0.004194 
x,y,z [Debye]:     2.839479    -1.477092    -0.010660 

 

Timings for individual modules:

Sum of individual times         ...        5.030 sec (=   0.084 min)
GTO integral calculation        ...        0.317 sec (=   0.005 min)   6.3 %
SCF iterations                  ...        3.721 sec (=   0.062 min)  74.0 %
SCF Gradient evaluation         ...        0.992 sec (=   0.017 min)  19.7 %
                             ****ORCA TERMINATED NORMALLY****
TOTAL RUN TIME: 0 days 0 hours 0 minutes 5 seconds 334 msec
