
                                 *****************
                                 * O   R   C   A *
                                 *****************

                                            #,                                       
                                            ###                                      
                                            ####                                     
                                            #####                                    
                                            ######                                   
                                           ########,                                 
                                     ,,################,,,,,                         
                               ,,#################################,,                 
                          ,,##########################################,,             
                       ,#########################################, ''#####,          
                    ,#############################################,,   '####,        
                  ,##################################################,,,,####,       
                ,###########''''           ''''###############################       
              ,#####''   ,,,,##########,,,,          '''####'''          '####       
            ,##' ,,,,###########################,,,                        '##       
           ' ,,###''''                  '''############,,,                           
         ,,##''                                '''############,,,,        ,,,,,,###''
      ,#''                                            '''#######################'''  
     '                                                          ''''####''''         
             ,#######,   #######,   ,#######,      ##                                
            ,#'     '#,  ##    ##  ,#'     '#,    #''#        ######   ,####,        
            ##       ##  ##   ,#'  ##            #'  '#       #        #'  '#        
            ##       ##  #######   ##           ,######,      #####,   #    #        
            '#,     ,#'  ##    ##  '#,     ,#' ,#      #,         ##   #,  ,#        
             '#######'   ##     ##  '#######'  #'      '#     #####' # '####'        



                  #######################################################
                  #                        -***-                        #
                  #          Department of theory and spectroscopy      #
                  #    Directorship and core code : Frank Neese         #
                  #        Max Planck Institute fuer Kohlenforschung    #
                  #                Kaiser Wilhelm Platz 1               #
                  #                 D-45470 Muelheim/Ruhr               #
                  #                      Germany                        #
                  #                                                     #
                  #                  All rights reserved                #
                  #                        -***-                        #
                  #######################################################


                         Program Version 5.0.2 -  RELEASE  -


 With contributions from (in alphabetic order):
   Daniel Aravena         : Magnetic Suceptibility
   Michael Atanasov       : Ab Initio Ligand Field Theory (pilot matlab implementation)
   Alexander A. Auer      : GIAO ZORA, VPT2 properties, NMR spectrum
   Ute Becker             : Parallelization
   Giovanni Bistoni       : ED, misc. LED, open-shell LED, HFLD
   Martin Brehm           : Molecular dynamics
   Dmytro Bykov           : SCF Hessian
   Vijay G. Chilkuri      : MRCI spin determinant printing, contributions to CSF-ICE
   Dipayan Datta          : RHF DLPNO-CCSD density
   Achintya Kumar Dutta   : EOM-CC, STEOM-CC
   Dmitry Ganyushin       : Spin-Orbit,Spin-Spin,Magnetic field MRCI
   Miquel Garcia          : C-PCM and meta-GGA Hessian, CC/C-PCM, Gaussian charge scheme
   Yang Guo               : DLPNO-NEVPT2, F12-NEVPT2, CIM, IAO-localization
   Andreas Hansen         : Spin unrestricted coupled pair/coupled cluster methods
   Benjamin Helmich-Paris : MC-RPA, TRAH-SCF, COSX integrals
   Lee Huntington         : MR-EOM, pCC
   Robert Izsak           : Overlap fitted RIJCOSX, COSX-SCS-MP3, EOM
   Marcus Kettner         : VPT2
   Christian Kollmar      : KDIIS, OOCD, Brueckner-CCSD(T), CCSD density, CASPT2, CASPT2-K
   Simone Kossmann        : Meta GGA functionals, TD-DFT gradient, OOMP2, MP2 Hessian
   Martin Krupicka        : Initial AUTO-CI
   Lucas Lang             : DCDCAS
   Marvin Lechner         : AUTO-CI (C++ implementation), FIC-MRCC
   Dagmar Lenk            : GEPOL surface, SMD
   Dimitrios Liakos       : Extrapolation schemes; Compound Job, initial MDCI parallelization
   Dimitrios Manganas     : Further ROCIS development; embedding schemes
   Dimitrios Pantazis     : SARC Basis sets
   Anastasios Papadopoulos: AUTO-CI, single reference methods and gradients
   Taras Petrenko         : DFT Hessian,TD-DFT gradient, ASA, ECA, R-Raman, ABS, FL, XAS/XES, NRVS
   Peter Pinski           : DLPNO-MP2, DLPNO-MP2 Gradient
   Christoph Reimann      : Effective Core Potentials
   Marius Retegan         : Local ZFS, SOC
   Christoph Riplinger    : Optimizer, TS searches, QM/MM, DLPNO-CCSD(T), (RO)-DLPNO pert. Triples
   Tobias Risthaus        : Range-separated hybrids, TD-DFT gradient, RPA, STAB
   Michael Roemelt        : Original ROCIS implementation
   Masaaki Saitow         : Open-shell DLPNO-CCSD energy and density
   Barbara Sandhoefer     : DKH picture change effects
   Avijit Sen             : IP-ROCIS
   Kantharuban Sivalingam : CASSCF convergence, NEVPT2, FIC-MRCI
   Bernardo de Souza      : ESD, SOC TD-DFT
   Georgi Stoychev        : AutoAux, RI-MP2 NMR, DLPNO-MP2 response
   Willem Van den Heuvel  : Paramagnetic NMR
   Boris Wezisla          : Elementary symmetry handling
   Frank Wennmohs         : Technical directorship


 We gratefully acknowledge several colleagues who have allowed us to
 interface, adapt or use parts of their codes:
   Stefan Grimme, W. Hujo, H. Kruse, P. Pracht,  : VdW corrections, initial TS optimization,
                  C. Bannwarth, S. Ehlert          DFT functionals, gCP, sTDA/sTD-DF
   Ed Valeev, F. Pavosevic, A. Kumar             : LibInt (2-el integral package), F12 methods
   Garnet Chan, S. Sharma, J. Yang, R. Olivares  : DMRG
   Ulf Ekstrom                                   : XCFun DFT Library
   Mihaly Kallay                                 : mrcc  (arbitrary order and MRCC methods)
   Jiri Pittner, Ondrej Demel                    : Mk-CCSD
   Frank Weinhold                                : gennbo (NPA and NBO analysis)
   Christopher J. Cramer and Donald G. Truhlar   : smd solvation model
   Lars Goerigk                                  : TD-DFT with DH, B97 family of functionals
   V. Asgeirsson, H. Jonsson                     : NEB implementation
   FAccTs GmbH                                   : IRC, NEB, NEB-TS, DLPNO-Multilevel, CI-OPT
                                                   MM, QMMM, 2- and 3-layer-ONIOM, Crystal-QMMM,
                                                   LR-CPCM, SF, NACMEs, symmetry and pop. for TD-DFT,
                                                   nearIR, NL-DFT gradient (VV10), updates on ESD,
                                                   ML-optimized integration grids
   S Lehtola, MJT Oliveira, MAL Marques          : LibXC Library
   Liviu Ungur et al                             : ANISO software


 Your calculation uses the libint2 library for the computation of 2-el integrals
 For citations please refer to: http://libint.valeyev.net

 Your ORCA version has been built with support for libXC version: 5.1.0
 For citations please refer to: https://tddft.org/programs/libxc/

 This ORCA versions uses:
   CBLAS   interface :  Fast vector & matrix operations
   LAPACKE interface :  Fast linear algebra routines
   SCALAPACK package :  Parallel linear algebra routines
   Shared memory     :  Shared parallel matrices
   BLAS/LAPACK       :  OpenBLAS 0.3.15  USE64BITINT DYNAMIC_ARCH NO_AFFINITY SkylakeX SINGLE_THREADED
        Core in use  :  SkylakeX
   Copyright (c) 2011-2014, The OpenBLAS Project


Your calculation utilizes the atom-pairwise dispersion correction
with the Becke-Johnson damping scheme (D3BJ)
Cite in your paper:
S.Grimme, S.Ehrlich, L.Goerigk, J Comput Chem, (2011), 32, 1456–1465 
S.Grimme, J.Antony, S.Ehrlich and H.Krieg, J.Chem.Phys., 132, (2010), 154104 
   

================================================================================

----- Orbital basis set information -----
Your calculation utilizes the basis: def2-TZVP
   F. Weigend and R. Ahlrichs, Phys. Chem. Chem. Phys. 7, 3297 (2005).

----- AuxJ basis set information -----
Your calculation utilizes the auxiliary basis: def2/J
   F. Weigend, Phys. Chem. Chem. Phys. 8, 1057 (2006).

================================================================================
                                        WARNINGS
                       Please study these warnings very carefully!
================================================================================


INFO   : the flag for use of the SHARK integral package has been found!

================================================================================
                                       INPUT FILE
================================================================================
NAME = ox_gs_E_orca0004.inp
|  1> ! engrad PBE0 D3BJ def2-TZVP  
|  2> %pal nprocs 8 end
|  3> %maxcore 3000
|  4>  
|  5> *xyz 0 1 
|  6> O   -1.0182966787641714 0.9297188235346787 0.07097051189597925
|  7> C   -0.6961407465710928 -0.4435349493098909 0.027614960032869132
|  8> C   0.6837371467351865 -0.4395908643587528 -0.08990097077926039
|  9> H   -1.3075736550890344 -0.6880405217549329 0.9025167982883374
| 10> H   -1.3029518309499901 -0.7440546314750291 -0.954498622227787
| 11> H   1.2323075448437044 -0.6764937844543099 -0.9269729475213704
| 12> H   1.2510529629885483 -0.6740271971509207 0.8908629443063922
| 13> *
| 14> 
| 15>                          ****END OF INPUT****
================================================================================

                     *******************************
                     * Energy+Gradient Calculation *
                     *******************************

---------------------------------
CARTESIAN COORDINATES (ANGSTROEM)
---------------------------------
  O     -1.018297    0.929719    0.070971
  C     -0.696141   -0.443535    0.027615
  C      0.683737   -0.439591   -0.089901
  H     -1.307574   -0.688041    0.902517
  H     -1.302952   -0.744055   -0.954499
  H      1.232308   -0.676494   -0.926973
  H      1.251053   -0.674027    0.890863

----------------------------
CARTESIAN COORDINATES (A.U.)
----------------------------
  NO LB      ZA    FRAG     MASS         X           Y           Z
   0 O     8.0000    0    15.999   -1.924302    1.756914    0.134115
   1 C     6.0000    0    12.011   -1.315515   -0.838160    0.052185
   2 C     6.0000    0    12.011    1.292076   -0.830706   -0.169888
   3 H     1.0000    0     1.008   -2.470956   -1.300208    1.705510
   4 H     1.0000    0     1.008   -2.462222   -1.406059   -1.803741
   5 H     1.0000    0     1.008    2.328724   -1.278388   -1.751725
   6 H     1.0000    0     1.008    2.364147   -1.273727    1.683487

--------------------------------
INTERNAL COORDINATES (ANGSTROEM)
--------------------------------
 O      0   0   0     0.000000000000     0.00000000     0.00000000
 C      1   0   0     1.411201641565     0.00000000     0.00000000
 C      2   1   0     1.384878532665   103.13793627     0.00000000
 H      2   1   3     1.095028037613    93.74226408   131.16429532
 H      2   1   3     1.192928690222    98.87701872   240.56991958
 H      3   2   1     1.028465832917   126.86059265   252.47868733
 H      3   2   1     1.157024410563   114.58520951   102.29003979

---------------------------
INTERNAL COORDINATES (A.U.)
---------------------------
 O      0   0   0     0.000000000000     0.00000000     0.00000000
 C      1   0   0     2.666784622298     0.00000000     0.00000000
 C      2   1   0     2.617041155483   103.13793627     0.00000000
 H      2   1   3     2.069303100053    93.74226408   131.16429532
 H      2   1   3     2.254308521817    98.87701872   240.56991958
 H      3   2   1     1.943518762308   126.86059265   252.47868733
 H      3   2   1     2.186459266226   114.58520951   102.29003979

---------------------
BASIS SET INFORMATION
---------------------
There are 3 groups of distinct atoms

 Group   1 Type O   : 11s6p2d1f contracted to 5s3p2d1f pattern {62111/411/11/1}
 Group   2 Type C   : 11s6p2d1f contracted to 5s3p2d1f pattern {62111/411/11/1}
 Group   3 Type H   : 5s1p contracted to 3s1p pattern {311/1}

Atom   0O    basis set group =>   1
Atom   1C    basis set group =>   2
Atom   2C    basis set group =>   2
Atom   3H    basis set group =>   3
Atom   4H    basis set group =>   3
Atom   5H    basis set group =>   3
Atom   6H    basis set group =>   3
---------------------------------
AUXILIARY/J BASIS SET INFORMATION
---------------------------------
There are 3 groups of distinct atoms

 Group   1 Type O   : 12s5p4d2f1g contracted to 6s4p3d1f1g pattern {711111/2111/211/2/1}
 Group   2 Type C   : 12s5p4d2f1g contracted to 6s4p3d1f1g pattern {711111/2111/211/2/1}
 Group   3 Type H   : 5s2p1d contracted to 3s1p1d pattern {311/2/1}

Atom   0O    basis set group =>   1
Atom   1C    basis set group =>   2
Atom   2C    basis set group =>   2
Atom   3H    basis set group =>   3
Atom   4H    basis set group =>   3
Atom   5H    basis set group =>   3
Atom   6H    basis set group =>   3


           ************************************************************
           *        Program running with 8 parallel MPI-processes     *
           *              working on a common directory               *
           ************************************************************
------------------------------------------------------------------------------
                           ORCA GTO INTEGRAL CALCULATION
                           -- RI-GTO INTEGRALS CHOSEN --
------------------------------------------------------------------------------
------------------------------------------------------------------------------
                   ___                                                        
                  /   \      - P O W E R E D   B Y -                         
                 /     \                                                     
                 |  |  |   _    _      __       _____    __    __             
                 |  |  |  | |  | |    /  \     |  _  \  |  |  /  |          
                  \  \/   | |  | |   /    \    | | | |  |  | /  /          
                 / \  \   | |__| |  /  /\  \   | |_| |  |  |/  /          
                |  |  |   |  __  | /  /__\  \  |    /   |      \           
                |  |  |   | |  | | |   __   |  |    \   |  |\   \          
                \     /   | |  | | |  |  |  |  | |\  \  |  | \   \       
                 \___/    |_|  |_| |__|  |__|  |_| \__\ |__|  \__/        
                                                                              
                      - O R C A' S   B I G   F R I E N D -                    
                                      &                                       
                       - I N T E G R A L  F E E D E R -                       
                                                                              
 v1 FN, 2020, v2 2021                                                         
------------------------------------------------------------------------------


Reading SHARK input file ox_gs_E_orca0004.SHARKINP.tmp ... ok
----------------------
SHARK INTEGRAL PACKAGE
----------------------

Number of atoms                             ...      7
Number of basis functions                   ...    117
Number of shells                            ...     49
Maximum angular momentum                    ...      3
Integral batch strategy                     ... SHARK/LIBINT Hybrid
RI-J (if used) integral strategy            ... SPLIT-RIJ (Revised 2003 algorithm where possible)
Printlevel                                  ...      1
Contraction scheme used                     ... SEGMENTED contraction
Coulomb Range Separation                    ... NOT USED
Exchange Range Separation                   ... NOT USED
Finite Nucleus Model                        ... NOT USED
Auxiliary Coulomb fitting basis             ... AVAILABLE
   # of basis functions in Aux-J            ...    191
   # of shells in Aux-J                     ...     65
   Maximum angular momentum in Aux-J        ...      4
Auxiliary J/K fitting basis                 ... NOT available
Auxiliary Correlation fitting basis         ... NOT available
Auxiliary 'external' fitting basis          ... NOT available
Integral threshold                          ...     2.500000e-11
Primitive cut-off                           ...     2.500000e-12
Primitive pair pre-selection threshold      ...     2.500000e-12

Calculating pre-screening integrals         ... done (  0.0 sec) Dimension = 49
Organizing shell pair data                  ... done (  0.0 sec)
Shell pair information
Total number of shell pairs                 ...      1225
Shell pairs after pre-screening             ...      1213
Total number of primitive shell pairs       ...      3648
Primitive shell pairs kept                  ...      3088
          la=0 lb=0:    367 shell pairs
          la=1 lb=0:    351 shell pairs
          la=1 lb=1:     91 shell pairs
          la=2 lb=0:    161 shell pairs
          la=2 lb=1:     78 shell pairs
          la=2 lb=2:     21 shell pairs
          la=3 lb=0:     81 shell pairs
          la=3 lb=1:     39 shell pairs
          la=3 lb=2:     18 shell pairs
          la=3 lb=3:      6 shell pairs

Calculating one electron integrals          ... done (  0.0 sec)
Calculating RI/J V-Matrix + Cholesky decomp.... done (  0.0 sec)
Calculating Nuclear repulsion               ... done (  0.0 sec) ENN=     69.224877118144 Eh

SHARK setup successfully completed in   0.1 seconds

Maximum memory used throughout the entire GTOINT-calculation: 14.9 MB


           ************************************************************
           *        Program running with 8 parallel MPI-processes     *
           *              working on a common directory               *
           ************************************************************
-------------------------------------------------------------------------------
                                 ORCA SCF
-------------------------------------------------------------------------------

------------
SCF SETTINGS
------------
Hamiltonian:
 Density Functional     Method          .... DFT(GTOs)
 Exchange Functional    Exchange        .... PBE
   PBE kappa parameter   XKappa         ....  0.804000
   PBE mue parameter    XMuePBE         ....  0.219520
 Correlation Functional Correlation     .... PBE
   PBE beta parameter  CBetaPBE         ....  0.066725
 LDA part of GGA corr.  LDAOpt          .... PW91-LDA
 Gradients option       PostSCFGGA      .... off
 Hybrid DFT is turned on
   Fraction HF Exchange ScalHFX         ....  0.250000
   Scaling of DF-GGA-X  ScalDFX         ....  0.750000
   Scaling of DF-GGA-C  ScalDFC         ....  1.000000
   Scaling of DF-LDA-C  ScalLDAC        ....  1.000000
   Perturbative correction              ....  0.000000
   Density functional embedding theory  .... OFF
   NL short-range parameter             ....  6.900000
 RI-approximation to the Coulomb term is turned on
   Number of AuxJ basis functions       .... 191
   RIJ-COSX (HFX calculated with COS-X)).... on


General Settings:
 Integral files         IntName         .... ox_gs_E_orca0004
 Hartree-Fock type      HFTyp           .... RHF
 Total Charge           Charge          ....    0
 Multiplicity           Mult            ....    1
 Number of Electrons    NEL             ....   24
 Basis Dimension        Dim             ....  117
 Nuclear Repulsion      ENuc            ....     69.2248771181 Eh

Convergence Acceleration:
 DIIS                   CNVDIIS         .... on
   Start iteration      DIISMaxIt       ....    12
   Startup error        DIISStart       ....  0.200000
   # of expansion vecs  DIISMaxEq       ....     5
   Bias factor          DIISBfac        ....   1.050
   Max. coefficient     DIISMaxC        ....  10.000
 Trust-Rad. Augm. Hess. CNVTRAH         .... auto
   Auto Start mean grad. ratio tolernc. ....  1.125000
   Auto Start start iteration           ....    20
   Auto Start num. interpolation iter.  ....    10
   Max. Number of Micro iterations      ....    16
   Max. Number of Macro iterations      .... Maxiter - #DIIS iter
   Number of Davidson start vectors     ....     2
   Converg. threshold I  (grad. norm)   ....   1.000e-05
   Converg. threshold II (energy diff.) ....   1.000e-08
   Grad. Scal. Fac. for Micro threshold ....   0.100
   Minimum threshold for Micro iter.    ....   0.010
   NR start threshold (gradient norm)   ....   0.001
   Initial trust radius                 ....   0.400
   Minimum AH scaling param. (alpha)    ....   1.000
   Maximum AH scaling param. (alpha)    .... 1000.000
   Orbital update algorithm             .... Taylor
   White noise on init. David. guess    .... on
   Maximum white noise                  ....   0.010
   Quad. conv. algorithm                .... NR
 SOSCF                  CNVSOSCF        .... on
   Start iteration      SOSCFMaxIt      ....   150
   Startup grad/error   SOSCFStart      ....  0.003300
 Level Shifting         CNVShift        .... on
   Level shift para.    LevelShift      ....    0.2500
   Turn off err/grad.   ShiftErr        ....    0.0010
 Zerner damping         CNVZerner       .... off
 Static damping         CNVDamp         .... on
   Fraction old density DampFac         ....    0.7000
   Max. Damping (<1)    DampMax         ....    0.9800
   Min. Damping (>=0)   DampMin         ....    0.0000
   Turn off err/grad.   DampErr         ....    0.1000
 Fernandez-Rico         CNVRico         .... off

SCF Procedure:
 Maximum # iterations   MaxIter         ....   125
 SCF integral mode      SCFMode         .... Direct
   Integral package                     .... SHARK and LIBINT hybrid scheme
 Reset frequency        DirectResetFreq ....    20
 Integral Threshold     Thresh          ....  2.500e-11 Eh
 Primitive CutOff       TCut            ....  2.500e-12 Eh

Convergence Tolerance:
 Convergence Check Mode ConvCheckMode   .... Total+1el-Energy
 Convergence forced     ConvForced      .... 0
 Energy Change          TolE            ....  1.000e-08 Eh
 1-El. energy change                    ....  1.000e-05 Eh
 Orbital Gradient       TolG            ....  1.000e-05
 Orbital Rotation angle TolX            ....  1.000e-05
 DIIS Error             TolErr          ....  5.000e-07


Diagonalization of the overlap matrix:
Smallest eigenvalue                        ... 2.817e-04
Time for diagonalization                   ...    0.001 sec
Threshold for overlap eigenvalues          ... 1.000e-08
Number of eigenvalues below threshold      ... 0
Time for construction of square roots      ...    0.001 sec
Total time needed                          ...    0.003 sec

Time for model grid setup =    0.022 sec

------------------------------
INITIAL GUESS: MODEL POTENTIAL
------------------------------
Loading Hartree-Fock densities                     ... done
Calculating cut-offs                               ... done
Initializing the effective Hamiltonian             ... done
Setting up the integral package (SHARK)            ... done
Starting the Coulomb interaction                   ... done (   0.0 sec)
Reading the grid                                   ... done
Mapping shells                                     ... done
Starting the XC term evaluation                    ... done (   0.0 sec)
  promolecular density results
     # of electrons  =     23.997490533
     EX              =    -19.466964406
     EC              =     -0.767282327
     EX+EC           =    -20.234246733
Transforming the Hamiltonian                       ... done (   0.0 sec)
Diagonalizing the Hamiltonian                      ... done (   0.0 sec)
Back transforming the eigenvectors                 ... done (   0.0 sec)
Now organizing SCF variables                       ... done
                      ------------------
                      INITIAL GUESS DONE (   0.0 sec)
                      ------------------
-------------------
DFT GRID GENERATION
-------------------

General Integration Accuracy     IntAcc      ... 4.388
Radial Grid Type                 RadialGrid  ... OptM3 with GC (2021)
Angular Grid (max. ang.)         AngularGrid ... 4 (Lebedev-302)
Angular grid pruning method      GridPruning ... 4 (adaptive)
Weight generation scheme         WeightScheme... Becke
Basis function cutoff            BFCut       ... 1.0000e-11
Integration weight cutoff        WCut        ... 1.0000e-14
Angular grids for H and He will be reduced by one unit
Partially contracted basis set               ... off
Rotationally invariant grid construction     ... off

Total number of grid points                  ...    31317
Total number of batches                      ...      492
Average number of points per batch           ...       63
Average number of grid points per atom       ...     4474
Time for grid setup =    0.111 sec

--------------------
COSX GRID GENERATION
--------------------

GRIDX 1
-------
General Integration Accuracy     IntAcc      ... 3.816
Radial Grid Type                 RadialGrid  ... OptM3 with GC (2021)
Angular Grid (max. ang.)         AngularGrid ... 1 (Lebedev-50)
Angular grid pruning method      GridPruning ... 4 (adaptive)
Weight generation scheme         WeightScheme... Becke
Basis function cutoff            BFCut       ... 1.0000e-11
Integration weight cutoff        WCut        ... 1.0000e-14
Angular grids for H and He will be reduced by one unit
Partially contracted basis set               ... on
Rotationally invariant grid construction     ... off

Total number of grid points                  ...     4038
Total number of batches                      ...       67
Average number of points per batch           ...       60
Average number of grid points per atom       ...      577
UseSFitting                                  ... on

GRIDX 2
-------
General Integration Accuracy     IntAcc      ... 4.020
Radial Grid Type                 RadialGrid  ... OptM3 with GC (2021)
Angular Grid (max. ang.)         AngularGrid ... 2 (Lebedev-110)
Angular grid pruning method      GridPruning ... 4 (adaptive)
Weight generation scheme         WeightScheme... Becke
Basis function cutoff            BFCut       ... 1.0000e-11
Integration weight cutoff        WCut        ... 1.0000e-14
Angular grids for H and He will be reduced by one unit
Partially contracted basis set               ... on
Rotationally invariant grid construction     ... off

Total number of grid points                  ...     8732
Total number of batches                      ...      140
Average number of points per batch           ...       62
Average number of grid points per atom       ...     1247
UseSFitting                                  ... on

GRIDX 3
-------
General Integration Accuracy     IntAcc      ... 4.338
Radial Grid Type                 RadialGrid  ... OptM3 with GC (2021)
Angular Grid (max. ang.)         AngularGrid ... 3 (Lebedev-194)
Angular grid pruning method      GridPruning ... 4 (adaptive)
Weight generation scheme         WeightScheme... Becke
Basis function cutoff            BFCut       ... 1.0000e-11
Integration weight cutoff        WCut        ... 1.0000e-14
Angular grids for H and He will be reduced by one unit
Partially contracted basis set               ... on
Rotationally invariant grid construction     ... off

Total number of grid points                  ...    19278
Total number of batches                      ...      305
Average number of points per batch           ...       63
Average number of grid points per atom       ...     2754
UseSFitting                                  ... on

Time for X-Grid setup             =    0.072 sec

--------------
SCF ITERATIONS
--------------
ITER       Energy         Delta-E        Max-DP      RMS-DP      [F,P]     Damp
               ***  Starting incremental Fock matrix formation  ***
  0   -153.3375783228   0.000000000000 0.09632869  0.00275015  0.3418757 0.7000
  1   -153.4405191386  -0.102940815752 0.05765734  0.00149170  0.0878523 0.7000
                               ***Turning on DIIS***
  2   -153.4540292031  -0.013510064493 0.05156157  0.00195276  0.0663140 0.0000
  3   -153.5177916522  -0.063762449091 0.02544482  0.00117218  0.0380337 0.0000
  4   -153.5205481255  -0.002756473377 0.01075728  0.00036141  0.0522857 0.0000
  5   -153.5233289674  -0.002780841811 0.00415976  0.00012983  0.0149231 0.0000
  6   -153.5235760398  -0.000247072415 0.00182397  0.00004897  0.0052115 0.0000
                      *** Initiating the SOSCF procedure ***
                           *** Shutting down DIIS ***
                      *** Re-Reading the Fockian *** 
                      *** Removing any level shift *** 
ITER      Energy       Delta-E        Grad      Rot      Max-DP    RMS-DP
  7   -153.52360163  -0.0000255872  0.000389  0.000389  0.001329  0.000050
               *** Restarting incremental Fock matrix formation ***
  8   -153.52360726  -0.0000056288  0.000495  0.004055  0.002088  0.000059
  9   -153.52357726   0.0000299914  0.002370  0.003777  0.002016  0.000046
 10   -153.52361061  -0.0000333446  0.000102  0.001081  0.000304  0.000013
 11   -153.52361100  -0.0000003936  0.000092  0.001238  0.000360  0.000013
 12   -153.52361146  -0.0000004570  0.000043  0.001492  0.000441  0.000015
 13   -153.52361162  -0.0000001569  0.000013  0.000207  0.000065  0.000002
 14   -153.52361162  -0.0000000065  0.000014  0.000031  0.000014  0.000001
                  ***Gradient check signals convergence***
              ***Rediagonalizing the Fockian in SOSCF/NRSCF***

               *****************************************************
               *                     SUCCESS                       *
               *           SCF CONVERGED AFTER  15 CYCLES          *
               *****************************************************

Old exchange energy                            =     -4.957274509 Eh
New exchange energy                            =     -4.957283892 Eh
Exchange energy change after final integration =     -0.000009383 Eh
Total energy after final integration           =   -153.523621010 Eh
Final COS-X integration done in                =     0.313 sec

----------------
TOTAL SCF ENERGY
----------------

Total Energy       :         -153.52362101 Eh           -4177.59011 eV

Components:
Nuclear Repulsion  :           69.22487712 Eh            1883.70467 eV
Electronic Energy  :         -222.74849813 Eh           -6061.29478 eV
One Electron Energy:         -345.18514115 Eh           -9392.96522 eV
Two Electron Energy:          122.43664302 Eh            3331.67044 eV
Max COSX asymmetry :            0.00000126 Eh               0.00003 eV

Virial components:
Potential Energy   :         -306.37566381 Eh           -8336.90565 eV
Kinetic Energy     :          152.85204280 Eh            4159.31554 eV
Virial Ratio       :            2.00439365


DFT components:
N(Alpha)           :       11.999996758133 electrons
N(Beta)            :       11.999996758133 electrons
N(Total)           :       23.999993516267 electrons
E(X)               :      -14.886339714929 Eh       
E(C)               :       -0.772583713668 Eh       
E(XC)              :      -15.658923428597 Eh       
DFET-embed. en.    :        0.000000000000 Eh       

---------------
SCF CONVERGENCE
---------------

  Last Energy change         ...   -3.8385e-09  Tolerance :   1.0000e-08
  Last MAX-Density change    ...    7.7716e-16  Tolerance :   1.0000e-07
  Last RMS-Density change    ...    1.9795e-17  Tolerance :   5.0000e-09
  Last Orbital Gradient      ...    1.7186e-06  Tolerance :   1.0000e-05
  Last Orbital Rotation      ...    1.1174e-05  Tolerance :   1.0000e-05

             **** THE GBW FILE WAS UPDATED (ox_gs_E_orca0004.gbw) ****
             **** DENSITY ox_gs_E_orca0004.scfp WAS UPDATED ****
             **** ENERGY FILE WAS UPDATED (ox_gs_E_orca0004.en.tmp) ****
             **** THE GBW FILE WAS UPDATED (ox_gs_E_orca0004.gbw) ****
             **** DENSITY ox_gs_E_orca0004.scfp WAS UPDATED ****
----------------
ORBITAL ENERGIES
----------------

  NO   OCC          E(Eh)            E(eV) 
   0   2.0000     -19.198141      -522.4080 
   1   2.0000     -10.321958      -280.8748 
   2   2.0000     -10.272892      -279.5396 
   3   2.0000      -1.002161       -27.2702 
   4   2.0000      -0.791358       -21.5339 
   5   2.0000      -0.621343       -16.9076 
   6   2.0000      -0.519403       -14.1337 
   7   2.0000      -0.504606       -13.7310 
   8   2.0000      -0.410499       -11.1702 
   9   2.0000      -0.400103       -10.8874 
  10   2.0000      -0.273182        -7.4337 
  11   2.0000      -0.248605        -6.7649 
  12   0.0000      -0.150787        -4.1031 
  13   0.0000       0.048967         1.3325 
  14   0.0000       0.068230         1.8566 
  15   0.0000       0.084605         2.3022 
  16   0.0000       0.137045         3.7292 
  17   0.0000       0.145194         3.9509 
  18   0.0000       0.184357         5.0166 
  19   0.0000       0.213225         5.8021 
  20   0.0000       0.227219         6.1829 
  21   0.0000       0.243266         6.6196 
  22   0.0000       0.257602         7.0097 
  23   0.0000       0.350798         9.5457 
  24   0.0000       0.363020         9.8783 
  25   0.0000       0.380530        10.3547 
  26   0.0000       0.405919        11.0456 
  27   0.0000       0.422798        11.5049 
  28   0.0000       0.428881        11.6704 
  29   0.0000       0.495276        13.4771 
  30   0.0000       0.517918        14.0933 
  31   0.0000       0.532674        14.4948 
  32   0.0000       0.567927        15.4541 
  33   0.0000       0.587878        15.9970 
  34   0.0000       0.661746        18.0070 
  35   0.0000       0.725457        19.7407 
  36   0.0000       0.795116        21.6362 
  37   0.0000       0.860923        23.4269 
  38   0.0000       0.873641        23.7730 
  39   0.0000       0.916479        24.9387 
  40   0.0000       0.935215        25.4485 
  41   0.0000       1.052714        28.6458 
  42   0.0000       1.095757        29.8171 
  43   0.0000       1.111121        30.2351 
  44   0.0000       1.207263        32.8513 
  45   0.0000       1.323178        36.0055 
  46   0.0000       1.410098        38.3707 
  47   0.0000       1.440280        39.1920 
  48   0.0000       1.521584        41.4044 
  49   0.0000       1.548800        42.1450 
  50   0.0000       1.573518        42.8176 
  51   0.0000       1.578774        42.9606 
  52   0.0000       1.626001        44.2457 
  53   0.0000       1.654005        45.0078 
  54   0.0000       1.758117        47.8408 
  55   0.0000       1.766298        48.0634 
  56   0.0000       1.791523        48.7498 
  57   0.0000       1.832079        49.8534 
  58   0.0000       1.864151        50.7261 
  59   0.0000       1.907488        51.9054 
  60   0.0000       2.002680        54.4957 
  61   0.0000       2.038046        55.4580 
  62   0.0000       2.193402        59.6855 
  63   0.0000       2.218273        60.3623 
  64   0.0000       2.300054        62.5877 
  65   0.0000       2.353126        64.0318 
  66   0.0000       2.363751        64.3209 
  67   0.0000       2.418106        65.8000 
  68   0.0000       2.470039        67.2132 
  69   0.0000       2.532266        68.9065 
  70   0.0000       2.548630        69.3517 
  71   0.0000       2.599656        70.7402 
  72   0.0000       2.645449        71.9863 
  73   0.0000       2.693450        73.2925 
  74   0.0000       2.753791        74.9345 
  75   0.0000       2.781721        75.6945 
  76   0.0000       2.841165        77.3120 
  77   0.0000       2.957302        80.4723 
  78   0.0000       2.988315        81.3162 
  79   0.0000       3.030854        82.4737 
  80   0.0000       3.055059        83.1324 
  81   0.0000       3.098330        84.3098 
  82   0.0000       3.125802        85.0574 
  83   0.0000       3.139418        85.4279 
  84   0.0000       3.154282        85.8324 
  85   0.0000       3.186761        86.7162 
  86   0.0000       3.351772        91.2063 
  87   0.0000       3.393472        92.3411 
  88   0.0000       3.450840        93.9021 
  89   0.0000       3.502851        95.3174 
  90   0.0000       3.521215        95.8171 
  91   0.0000       3.676493       100.0425 
  92   0.0000       3.739155       101.7476 
  93   0.0000       3.892393       105.9174 
  94   0.0000       4.024218       109.5045 
  95   0.0000       4.173984       113.5799 
  96   0.0000       4.227087       115.0249 
  97   0.0000       4.279033       116.4384 
  98   0.0000       4.434173       120.6600 
  99   0.0000       4.463841       121.4673 
 100   0.0000       4.612176       125.5037 
 101   0.0000       4.745347       129.1275 
 102   0.0000       5.200439       141.5111 
 103   0.0000       5.242785       142.6634 
 104   0.0000       5.396447       146.8448 
 105   0.0000       5.429181       147.7355 
 106   0.0000       5.778877       157.2513 
 107   0.0000       5.832730       158.7166 
 108   0.0000       5.946744       161.8191 
 109   0.0000       6.383044       173.6915 
 110   0.0000       6.397046       174.0725 
 111   0.0000       6.805825       185.1959 
 112   0.0000       6.820525       185.5959 
 113   0.0000       6.956515       189.2964 
 114   0.0000      22.066619       600.4632 
 115   0.0000      22.543330       613.4352 
 116   0.0000      43.779849      1191.3103 

                    ********************************
                    * MULLIKEN POPULATION ANALYSIS *
                    ********************************

-----------------------
MULLIKEN ATOMIC CHARGES
-----------------------
   0 O :   -0.375635
   1 C :   -0.070142
   2 C :   -0.099430
   3 H :    0.128892
   4 H :    0.086695
   5 H :    0.171719
   6 H :    0.157900
Sum of atomic charges:    0.0000000

--------------------------------
MULLIKEN REDUCED ORBITAL CHARGES
--------------------------------
  0 O s       :     3.908748  s :     3.908748
      pz      :     1.904454  p :     4.441855
      px      :     1.191648
      py      :     1.345753
      dz2     :     0.003209  d :     0.023753
      dxz     :     0.000307
      dyz     :     0.005529
      dx2y2   :     0.008541
      dxy     :     0.006167
      f0      :     0.000152  f :     0.001278
      f+1     :     0.000071
      f-1     :     0.000283
      f+2     :     0.000154
      f-2     :     0.000043
      f+3     :     0.000297
      f-3     :     0.000278
  1 C s       :     3.189052  s :     3.189052
      pz      :     1.064717  p :     2.702606
      px      :     0.894148
      py      :     0.743741
      dz2     :     0.010798  d :     0.168412
      dxz     :     0.022373
      dyz     :     0.049914
      dx2y2   :     0.021371
      dxy     :     0.063955
      f0      :     0.001778  f :     0.010071
      f+1     :     0.001189
      f-1     :     0.000767
      f+2     :     0.003059
      f-2     :     0.000533
      f+3     :     0.002340
      f-3     :     0.000406
  2 C s       :     3.268148  s :     3.268148
      pz      :     1.053690  p :     2.771186
      px      :     1.025024
      py      :     0.692473
      dz2     :     0.005082  d :     0.055254
      dxz     :     0.027454
      dyz     :     0.003825
      dx2y2   :     0.005251
      dxy     :     0.013642
      f0      :     0.000488  f :     0.004842
      f+1     :     0.001042
      f-1     :     0.000111
      f+2     :     0.000864
      f-2     :     0.000271
      f+3     :     0.000640
      f-3     :     0.001426
  3 H s       :     0.848758  s :     0.848758
      pz      :     0.009675  p :     0.022350
      px      :     0.007219
      py      :     0.005457
  4 H s       :     0.895850  s :     0.895850
      pz      :     0.008572  p :     0.017455
      px      :     0.005349
      py      :     0.003534
  5 H s       :     0.803970  s :     0.803970
      pz      :     0.011165  p :     0.024311
      px      :     0.008171
      py      :     0.004975
  6 H s       :     0.822063  s :     0.822063
      pz      :     0.010617  p :     0.020037
      px      :     0.005965
      py      :     0.003455


                     *******************************
                     * LOEWDIN POPULATION ANALYSIS *
                     *******************************

----------------------
LOEWDIN ATOMIC CHARGES
----------------------
   0 O :   -0.047065
   1 C :   -0.494580
   2 C :    0.010045
   3 H :    0.127824
   4 H :    0.129267
   5 H :    0.117059
   6 H :    0.157451

-------------------------------
LOEWDIN REDUCED ORBITAL CHARGES
-------------------------------
  0 O s       :     3.561761  s :     3.561761
      pz      :     1.831249  p :     4.426118
      px      :     1.144308
      py      :     1.450561
      dz2     :     0.006686  d :     0.055457
      dxz     :     0.000393
      dyz     :     0.015801
      dx2y2   :     0.017942
      dxy     :     0.014635
      f0      :     0.000417  f :     0.003730
      f+1     :     0.000115
      f-1     :     0.000560
      f+2     :     0.000680
      f-2     :     0.000097
      f+3     :     0.000986
      f-3     :     0.000875
  1 C s       :     2.819829  s :     2.819829
      pz      :     1.034018  p :     2.952621
      px      :     1.056944
      py      :     0.861659
      dz2     :     0.066903  d :     0.648764
      dxz     :     0.119165
      dyz     :     0.134066
      dx2y2   :     0.124950
      dxy     :     0.203680
      f0      :     0.011049  f :     0.073366
      f+1     :     0.007278
      f-1     :     0.006933
      f+2     :     0.016911
      f-2     :     0.004827
      f+3     :     0.019771
      f-3     :     0.006598
  2 C s       :     2.889981  s :     2.889981
      pz      :     1.062909  p :     2.821731
      px      :     1.139024
      py      :     0.619798
      dz2     :     0.028222  d :     0.250000
      dxz     :     0.129232
      dyz     :     0.009836
      dx2y2   :     0.038461
      dxy     :     0.044249
      f0      :     0.003818  f :     0.028243
      f+1     :     0.004330
      f-1     :     0.001085
      f+2     :     0.005292
      f-2     :     0.001779
      f+3     :     0.004760
      f-3     :     0.007180
  3 H s       :     0.810414  s :     0.810414
      pz      :     0.028719  p :     0.061762
      px      :     0.018688
      py      :     0.014355
  4 H s       :     0.825782  s :     0.825782
      pz      :     0.023700  p :     0.044951
      px      :     0.012515
      py      :     0.008736
  5 H s       :     0.807712  s :     0.807712
      pz      :     0.036753  p :     0.075229
      px      :     0.023765
      py      :     0.014711
  6 H s       :     0.788616  s :     0.788616
      pz      :     0.029951  p :     0.053934
      px      :     0.015044
      py      :     0.008939


                      *****************************
                      * MAYER POPULATION ANALYSIS *
                      *****************************

  NA   - Mulliken gross atomic population
  ZA   - Total nuclear charge
  QA   - Mulliken gross atomic charge
  VA   - Mayer's total valence
  BVA  - Mayer's bonded valence
  FA   - Mayer's free valence

  ATOM       NA         ZA         QA         VA         BVA        FA
  0 O      8.3756     8.0000    -0.3756     1.7821     1.7821    -0.0000
  1 C      6.0701     6.0000    -0.0701     4.0640     4.0640     0.0000
  2 C      6.0994     6.0000    -0.0994     3.7907     3.7907     0.0000
  3 H      0.8711     1.0000     0.1289     0.9706     0.9706     0.0000
  4 H      0.9133     1.0000     0.0867     0.9628     0.9628     0.0000
  5 H      0.8283     1.0000     0.1717     0.9547     0.9547     0.0000
  6 H      0.8421     1.0000     0.1579     0.9595     0.9595     0.0000

  Mayer bond orders larger than 0.100000
B(  0-O ,  1-C ) :   0.9945 B(  0-O ,  2-C ) :   0.7864 B(  1-C ,  2-C ) :   1.1248 
B(  1-C ,  3-H ) :   0.9814 B(  1-C ,  4-H ) :   0.9528 B(  2-C ,  5-H ) :   0.9413 
B(  2-C ,  6-H ) :   0.9401 

-------
TIMINGS
-------

Total SCF time: 0 days 0 hours 0 min 3 sec 

Total time                  ....       3.571 sec
Sum of individual times     ....       3.231 sec  ( 90.5%)

Fock matrix formation       ....       2.952 sec  ( 82.7%)
  Split-RI-J                ....       0.301 sec  ( 10.2% of F)
  Chain of spheres X        ....       2.035 sec  ( 68.9% of F)
  XC integration            ....       0.541 sec  ( 18.3% of F)
    Basis function eval.    ....       0.152 sec  ( 28.1% of XC)
    Density eval.           ....       0.112 sec  ( 20.8% of XC)
    XC-Functional eval.     ....       0.033 sec  (  6.2% of XC)
    XC-Potential eval.      ....       0.188 sec  ( 34.8% of XC)
Diagonalization             ....       0.018 sec  (  0.5%)
Density matrix formation    ....       0.002 sec  (  0.1%)
Population analysis         ....       0.003 sec  (  0.1%)
Initial guess               ....       0.017 sec  (  0.5%)
Orbital Transformation      ....       0.000 sec  (  0.0%)
Orbital Orthonormalization  ....       0.000 sec  (  0.0%)
DIIS solution               ....       0.015 sec  (  0.4%)
SOSCF solution              ....       0.019 sec  (  0.5%)
Grid generation             ....       0.205 sec  (  5.7%)

Maximum memory used throughout the entire SCF-calculation: 61.0 MB


-------------------------------------------------------------------------------
                          DFT DISPERSION CORRECTION                            
                                                                               
                              DFTD3 V3.1  Rev 1                                
                          USING Becke-Johnson damping                          
-------------------------------------------------------------------------------
The PBE0 functional is recognized
Active option DFTDOPT                   ...         4   

molecular C6(AA) [au] = 394.885229 


            DFT-D V3
 parameters
 s6 scaling factor         :     1.0000 
 a1 scaling factor         :     0.4145 
 s8 scaling factor         :     1.2177 
 a2 scaling factor         :     4.8593 
 ad hoc parameters k1-k3   :    16.0000     1.3333    -4.0000 

 Edisp/kcal,au: -1.649060986085  -0.002627945678 
 E6   /kcal   :  -1.076142830 
 E8   /kcal   :  -0.572918156 
 % E8         :  34.742084193 

-------------------------   ----------------
Dispersion correction           -0.002627946
-------------------------   ----------------


-------------------------   --------------------
FINAL SINGLE POINT ENERGY      -153.526248955900
-------------------------   --------------------



           ************************************************************
           *        Program running with 8 parallel MPI-processes     *
           *              working on a common directory               *
           ************************************************************
------------------------------------------------------------------------------
                         ORCA SCF GRADIENT CALCULATION
------------------------------------------------------------------------------

 ... reading COSX grid (gridx3)
Gradient of the Kohn-Sham DFT energy:
Kohn-Sham wavefunction type      ... RKS
Hartree-Fock exchange scaling    ...    0.250
Number of operators              ...    1
Number of atoms                  ...    7
Basis set dimensions             ...  117
Integral neglect threshold       ... 2.5e-11
Integral primitive cutoff        ... 2.5e-12
SHARK Integral package           ... ON

Nuc. rep. gradient       (SHARK) ... done (  0.0 sec)
HCore & Overlap gradient (SHARK) ... done (  0.0 sec)
RI-J gradient            (SHARK) ... done (  0.1 sec)
COSX-gradient                    ... done (  0.4 sec)
Exchange-correlation gradient    ... done
Dispersion correction            ... done

------------------
CARTESIAN GRADIENT
------------------

   1   O   :   -0.078020360   -0.028772088    0.011215872
   2   C   :    0.141977571    0.011925328    0.046977220
   3   C   :   -0.009483517    0.002073203   -0.095284021
   4   H   :   -0.022663195    0.039436461   -0.003732212
   5   H   :   -0.029558969    0.012587105   -0.034957578
   6   H   :   -0.016496986   -0.011244857    0.045596635
   7   H   :    0.014174431   -0.025991574    0.030091002

Difference to translation invariance:
           :   -0.0000710240    0.0000135777   -0.0000930809

Difference to rotation invariance:
           :   -0.0000370138   -0.0001392265    0.0004180401

Norm of the cartesian gradient     ...    0.2175255583
RMS gradient                       ...    0.0474679684
MAX gradient                       ...    0.1419775713

-------
TIMINGS
-------

Total SCF gradient time            ...        0.768 sec

One electron gradient       ....       0.010 sec  (  1.3%)
RI-J Coulomb gradient       ....       0.080 sec  ( 10.4%)
COSX gradient               ....       0.356 sec  ( 46.3%)
XC gradient                 ....       0.176 sec  ( 23.0%)

Maximum memory used throughout the entire SCFGRAD-calculation: 35.9 MB

                            ***************************************
                            *     ORCA property calculations      *
                            ***************************************

                                    ---------------------
                                    Active property flags
                                    ---------------------
   (+) Dipole Moment


------------------------------------------------------------------------------
                       ORCA ELECTRIC PROPERTIES CALCULATION
------------------------------------------------------------------------------

Dipole Moment Calculation                       ... on
Quadrupole Moment Calculation                   ... off
Polarizability Calculation                      ... off
GBWName                                         ... ox_gs_E_orca0004.gbw
Electron density                                ... ox_gs_E_orca0004.scfp
The origin for moment calculation is the CENTER OF MASS  = (-0.710750,  0.062735  0.012807)

-------------
DIPOLE MOMENT
-------------
                                X             Y             Z
Electronic contribution:     -0.43308       1.55274       0.06982
Nuclear contribution   :      1.28264      -2.72191      -0.10713
                        -----------------------------------------
Total Dipole Moment    :      0.84956      -1.16917      -0.03731
                        -----------------------------------------
Magnitude (a.u.)       :      1.44572
Magnitude (Debye)      :      3.67473



--------------------
Rotational spectrum 
--------------------
 
Rotational constants in cm-1:     1.301257     0.393774     0.344546 
Rotational constants in MHz : 39010.702389 11805.057538 10329.240669 

 Dipole components along the rotational axes: 
x,y,z [a.u.] :     1.383319    -0.416209    -0.057501 
x,y,z [Debye]:     3.516118    -1.057919    -0.146155 

 

Timings for individual modules:

Sum of individual times         ...        4.994 sec (=   0.083 min)
GTO integral calculation        ...        0.299 sec (=   0.005 min)   6.0 %
SCF iterations                  ...        3.729 sec (=   0.062 min)  74.7 %
SCF Gradient evaluation         ...        0.966 sec (=   0.016 min)  19.3 %
                             ****ORCA TERMINATED NORMALLY****
TOTAL RUN TIME: 0 days 0 hours 0 minutes 5 seconds 327 msec
