
                                 *****************
                                 * O   R   C   A *
                                 *****************

                                            #,                                       
                                            ###                                      
                                            ####                                     
                                            #####                                    
                                            ######                                   
                                           ########,                                 
                                     ,,################,,,,,                         
                               ,,#################################,,                 
                          ,,##########################################,,             
                       ,#########################################, ''#####,          
                    ,#############################################,,   '####,        
                  ,##################################################,,,,####,       
                ,###########''''           ''''###############################       
              ,#####''   ,,,,##########,,,,          '''####'''          '####       
            ,##' ,,,,###########################,,,                        '##       
           ' ,,###''''                  '''############,,,                           
         ,,##''                                '''############,,,,        ,,,,,,###''
      ,#''                                            '''#######################'''  
     '                                                          ''''####''''         
             ,#######,   #######,   ,#######,      ##                                
            ,#'     '#,  ##    ##  ,#'     '#,    #''#        ######   ,####,        
            ##       ##  ##   ,#'  ##            #'  '#       #        #'  '#        
            ##       ##  #######   ##           ,######,      #####,   #    #        
            '#,     ,#'  ##    ##  '#,     ,#' ,#      #,         ##   #,  ,#        
             '#######'   ##     ##  '#######'  #'      '#     #####' # '####'        



                  #######################################################
                  #                        -***-                        #
                  #          Department of theory and spectroscopy      #
                  #    Directorship and core code : Frank Neese         #
                  #        Max Planck Institute fuer Kohlenforschung    #
                  #                Kaiser Wilhelm Platz 1               #
                  #                 D-45470 Muelheim/Ruhr               #
                  #                      Germany                        #
                  #                                                     #
                  #                  All rights reserved                #
                  #                        -***-                        #
                  #######################################################


                         Program Version 5.0.2 -  RELEASE  -


 With contributions from (in alphabetic order):
   Daniel Aravena         : Magnetic Suceptibility
   Michael Atanasov       : Ab Initio Ligand Field Theory (pilot matlab implementation)
   Alexander A. Auer      : GIAO ZORA, VPT2 properties, NMR spectrum
   Ute Becker             : Parallelization
   Giovanni Bistoni       : ED, misc. LED, open-shell LED, HFLD
   Martin Brehm           : Molecular dynamics
   Dmytro Bykov           : SCF Hessian
   Vijay G. Chilkuri      : MRCI spin determinant printing, contributions to CSF-ICE
   Dipayan Datta          : RHF DLPNO-CCSD density
   Achintya Kumar Dutta   : EOM-CC, STEOM-CC
   Dmitry Ganyushin       : Spin-Orbit,Spin-Spin,Magnetic field MRCI
   Miquel Garcia          : C-PCM and meta-GGA Hessian, CC/C-PCM, Gaussian charge scheme
   Yang Guo               : DLPNO-NEVPT2, F12-NEVPT2, CIM, IAO-localization
   Andreas Hansen         : Spin unrestricted coupled pair/coupled cluster methods
   Benjamin Helmich-Paris : MC-RPA, TRAH-SCF, COSX integrals
   Lee Huntington         : MR-EOM, pCC
   Robert Izsak           : Overlap fitted RIJCOSX, COSX-SCS-MP3, EOM
   Marcus Kettner         : VPT2
   Christian Kollmar      : KDIIS, OOCD, Brueckner-CCSD(T), CCSD density, CASPT2, CASPT2-K
   Simone Kossmann        : Meta GGA functionals, TD-DFT gradient, OOMP2, MP2 Hessian
   Martin Krupicka        : Initial AUTO-CI
   Lucas Lang             : DCDCAS
   Marvin Lechner         : AUTO-CI (C++ implementation), FIC-MRCC
   Dagmar Lenk            : GEPOL surface, SMD
   Dimitrios Liakos       : Extrapolation schemes; Compound Job, initial MDCI parallelization
   Dimitrios Manganas     : Further ROCIS development; embedding schemes
   Dimitrios Pantazis     : SARC Basis sets
   Anastasios Papadopoulos: AUTO-CI, single reference methods and gradients
   Taras Petrenko         : DFT Hessian,TD-DFT gradient, ASA, ECA, R-Raman, ABS, FL, XAS/XES, NRVS
   Peter Pinski           : DLPNO-MP2, DLPNO-MP2 Gradient
   Christoph Reimann      : Effective Core Potentials
   Marius Retegan         : Local ZFS, SOC
   Christoph Riplinger    : Optimizer, TS searches, QM/MM, DLPNO-CCSD(T), (RO)-DLPNO pert. Triples
   Tobias Risthaus        : Range-separated hybrids, TD-DFT gradient, RPA, STAB
   Michael Roemelt        : Original ROCIS implementation
   Masaaki Saitow         : Open-shell DLPNO-CCSD energy and density
   Barbara Sandhoefer     : DKH picture change effects
   Avijit Sen             : IP-ROCIS
   Kantharuban Sivalingam : CASSCF convergence, NEVPT2, FIC-MRCI
   Bernardo de Souza      : ESD, SOC TD-DFT
   Georgi Stoychev        : AutoAux, RI-MP2 NMR, DLPNO-MP2 response
   Willem Van den Heuvel  : Paramagnetic NMR
   Boris Wezisla          : Elementary symmetry handling
   Frank Wennmohs         : Technical directorship


 We gratefully acknowledge several colleagues who have allowed us to
 interface, adapt or use parts of their codes:
   Stefan Grimme, W. Hujo, H. Kruse, P. Pracht,  : VdW corrections, initial TS optimization,
                  C. Bannwarth, S. Ehlert          DFT functionals, gCP, sTDA/sTD-DF
   Ed Valeev, F. Pavosevic, A. Kumar             : LibInt (2-el integral package), F12 methods
   Garnet Chan, S. Sharma, J. Yang, R. Olivares  : DMRG
   Ulf Ekstrom                                   : XCFun DFT Library
   Mihaly Kallay                                 : mrcc  (arbitrary order and MRCC methods)
   Jiri Pittner, Ondrej Demel                    : Mk-CCSD
   Frank Weinhold                                : gennbo (NPA and NBO analysis)
   Christopher J. Cramer and Donald G. Truhlar   : smd solvation model
   Lars Goerigk                                  : TD-DFT with DH, B97 family of functionals
   V. Asgeirsson, H. Jonsson                     : NEB implementation
   FAccTs GmbH                                   : IRC, NEB, NEB-TS, DLPNO-Multilevel, CI-OPT
                                                   MM, QMMM, 2- and 3-layer-ONIOM, Crystal-QMMM,
                                                   LR-CPCM, SF, NACMEs, symmetry and pop. for TD-DFT,
                                                   nearIR, NL-DFT gradient (VV10), updates on ESD,
                                                   ML-optimized integration grids
   S Lehtola, MJT Oliveira, MAL Marques          : LibXC Library
   Liviu Ungur et al                             : ANISO software


 Your calculation uses the libint2 library for the computation of 2-el integrals
 For citations please refer to: http://libint.valeyev.net

 Your ORCA version has been built with support for libXC version: 5.1.0
 For citations please refer to: https://tddft.org/programs/libxc/

 This ORCA versions uses:
   CBLAS   interface :  Fast vector & matrix operations
   LAPACKE interface :  Fast linear algebra routines
   SCALAPACK package :  Parallel linear algebra routines
   Shared memory     :  Shared parallel matrices
   BLAS/LAPACK       :  OpenBLAS 0.3.15  USE64BITINT DYNAMIC_ARCH NO_AFFINITY SkylakeX SINGLE_THREADED
        Core in use  :  SkylakeX
   Copyright (c) 2011-2014, The OpenBLAS Project


Your calculation utilizes the atom-pairwise dispersion correction
with the Becke-Johnson damping scheme (D3BJ)
Cite in your paper:
S.Grimme, S.Ehrlich, L.Goerigk, J Comput Chem, (2011), 32, 1456–1465 
S.Grimme, J.Antony, S.Ehrlich and H.Krieg, J.Chem.Phys., 132, (2010), 154104 
   

================================================================================

----- Orbital basis set information -----
Your calculation utilizes the basis: def2-TZVP
   F. Weigend and R. Ahlrichs, Phys. Chem. Chem. Phys. 7, 3297 (2005).

----- AuxJ basis set information -----
Your calculation utilizes the auxiliary basis: def2/J
   F. Weigend, Phys. Chem. Chem. Phys. 8, 1057 (2006).

================================================================================
                                        WARNINGS
                       Please study these warnings very carefully!
================================================================================


INFO   : the flag for use of the SHARK integral package has been found!

================================================================================
                                       INPUT FILE
================================================================================
NAME = ox_gs_A_orca0016.inp
|  1> ! engrad PBE0 D3BJ def2-TZVP  
|  2> %pal nprocs 8 end
|  3> %maxcore 3000
|  4>  
|  5> *xyz 0 1 
|  6> O   -0.04127480983962558 0.7508550179173504 0.020646682713781218
|  7> C   -0.7570758176401987 -0.48813150977832154 0.012184360574595616
|  8> C   0.7411378685554361 -0.47236764876855647 -0.02355191528091614
|  9> H   -1.252220433132118 -0.7406750270748662 0.8496030312811722
| 10> H   -1.2997449810626218 -0.6789432675855924 -0.9044308417200998
| 11> H   1.3375906308474774 -0.625387878839899 -0.9279731464981714
| 12> H   1.2628720596048657 -0.7183972782318905 0.9190505132003804
| 13> *
| 14> 
| 15>                          ****END OF INPUT****
================================================================================

                     *******************************
                     * Energy+Gradient Calculation *
                     *******************************

---------------------------------
CARTESIAN COORDINATES (ANGSTROEM)
---------------------------------
  O     -0.041275    0.750855    0.020647
  C     -0.757076   -0.488132    0.012184
  C      0.741138   -0.472368   -0.023552
  H     -1.252220   -0.740675    0.849603
  H     -1.299745   -0.678943   -0.904431
  H      1.337591   -0.625388   -0.927973
  H      1.262872   -0.718397    0.919051

----------------------------
CARTESIAN COORDINATES (A.U.)
----------------------------
  NO LB      ZA    FRAG     MASS         X           Y           Z
   0 O     8.0000    0    15.999   -0.077998    1.418910    0.039017
   1 C     6.0000    0    12.011   -1.430666   -0.922435    0.023025
   2 C     6.0000    0    12.011    1.400548   -0.892645   -0.044507
   3 H     1.0000    0     1.008   -2.366354   -1.399673    1.605517
   4 H     1.0000    0     1.008   -2.456162   -1.283017   -1.709127
   5 H     1.0000    0     1.008    2.527680   -1.181812   -1.753615
   6 H     1.0000    0     1.008    2.386482   -1.357574    1.736754

--------------------------------
INTERNAL COORDINATES (ANGSTROEM)
--------------------------------
 O      0   0   0     0.000000000000     0.00000000     0.00000000
 C      1   0   0     1.430919393074     0.00000000     0.00000000
 C      1   2   0     1.452720485046    62.62329974     0.00000000
 H      2   1   3     1.005095243461   117.32699295   111.58345182
 H      2   1   3     1.082165595889   114.11283703   249.51104480
 H      3   1   2     1.094142976002   115.88135817   115.77729219
 H      3   1   2     1.105095689460   114.56874330   252.73879304

---------------------------
INTERNAL COORDINATES (A.U.)
---------------------------
 O      0   0   0     0.000000000000     0.00000000     0.00000000
 C      1   0   0     2.704045772627     0.00000000     0.00000000
 C      1   2   0     2.745243865874    62.62329974     0.00000000
 H      2   1   3     1.899354748647   117.32699295   111.58345182
 H      2   1   3     2.044996607781   114.11283703   249.51104480
 H      3   1   2     2.067630575996   115.88135817   115.77729219
 H      3   1   2     2.088328204856   114.56874330   252.73879304

---------------------
BASIS SET INFORMATION
---------------------
There are 3 groups of distinct atoms

 Group   1 Type O   : 11s6p2d1f contracted to 5s3p2d1f pattern {62111/411/11/1}
 Group   2 Type C   : 11s6p2d1f contracted to 5s3p2d1f pattern {62111/411/11/1}
 Group   3 Type H   : 5s1p contracted to 3s1p pattern {311/1}

Atom   0O    basis set group =>   1
Atom   1C    basis set group =>   2
Atom   2C    basis set group =>   2
Atom   3H    basis set group =>   3
Atom   4H    basis set group =>   3
Atom   5H    basis set group =>   3
Atom   6H    basis set group =>   3
---------------------------------
AUXILIARY/J BASIS SET INFORMATION
---------------------------------
There are 3 groups of distinct atoms

 Group   1 Type O   : 12s5p4d2f1g contracted to 6s4p3d1f1g pattern {711111/2111/211/2/1}
 Group   2 Type C   : 12s5p4d2f1g contracted to 6s4p3d1f1g pattern {711111/2111/211/2/1}
 Group   3 Type H   : 5s2p1d contracted to 3s1p1d pattern {311/2/1}

Atom   0O    basis set group =>   1
Atom   1C    basis set group =>   2
Atom   2C    basis set group =>   2
Atom   3H    basis set group =>   3
Atom   4H    basis set group =>   3
Atom   5H    basis set group =>   3
Atom   6H    basis set group =>   3


           ************************************************************
           *        Program running with 8 parallel MPI-processes     *
           *              working on a common directory               *
           ************************************************************
------------------------------------------------------------------------------
                           ORCA GTO INTEGRAL CALCULATION
                           -- RI-GTO INTEGRALS CHOSEN --
------------------------------------------------------------------------------
------------------------------------------------------------------------------
                   ___                                                        
                  /   \      - P O W E R E D   B Y -                         
                 /     \                                                     
                 |  |  |   _    _      __       _____    __    __             
                 |  |  |  | |  | |    /  \     |  _  \  |  |  /  |          
                  \  \/   | |  | |   /    \    | | | |  |  | /  /          
                 / \  \   | |__| |  /  /\  \   | |_| |  |  |/  /          
                |  |  |   |  __  | /  /__\  \  |    /   |      \           
                |  |  |   | |  | | |   __   |  |    \   |  |\   \          
                \     /   | |  | | |  |  |  |  | |\  \  |  | \   \       
                 \___/    |_|  |_| |__|  |__|  |_| \__\ |__|  \__/        
                                                                              
                      - O R C A' S   B I G   F R I E N D -                    
                                      &                                       
                       - I N T E G R A L  F E E D E R -                       
                                                                              
 v1 FN, 2020, v2 2021                                                         
------------------------------------------------------------------------------


Reading SHARK input file ox_gs_A_orca0016.SHARKINP.tmp ... ok
----------------------
SHARK INTEGRAL PACKAGE
----------------------

Number of atoms                             ...      7
Number of basis functions                   ...    117
Number of shells                            ...     49
Maximum angular momentum                    ...      3
Integral batch strategy                     ... SHARK/LIBINT Hybrid
RI-J (if used) integral strategy            ... SPLIT-RIJ (Revised 2003 algorithm where possible)
Printlevel                                  ...      1
Contraction scheme used                     ... SEGMENTED contraction
Coulomb Range Separation                    ... NOT USED
Exchange Range Separation                   ... NOT USED
Finite Nucleus Model                        ... NOT USED
Auxiliary Coulomb fitting basis             ... AVAILABLE
   # of basis functions in Aux-J            ...    191
   # of shells in Aux-J                     ...     65
   Maximum angular momentum in Aux-J        ...      4
Auxiliary J/K fitting basis                 ... NOT available
Auxiliary Correlation fitting basis         ... NOT available
Auxiliary 'external' fitting basis          ... NOT available
Integral threshold                          ...     2.500000e-11
Primitive cut-off                           ...     2.500000e-12
Primitive pair pre-selection threshold      ...     2.500000e-12

Calculating pre-screening integrals         ... done (  0.0 sec) Dimension = 49
Organizing shell pair data                  ... done (  0.0 sec)
Shell pair information
Total number of shell pairs                 ...      1225
Shell pairs after pre-screening             ...      1220
Total number of primitive shell pairs       ...      3648
Primitive shell pairs kept                  ...      3146
          la=0 lb=0:    373 shell pairs
          la=1 lb=0:    351 shell pairs
          la=1 lb=1:     91 shell pairs
          la=2 lb=0:    162 shell pairs
          la=2 lb=1:     78 shell pairs
          la=2 lb=2:     21 shell pairs
          la=3 lb=0:     81 shell pairs
          la=3 lb=1:     39 shell pairs
          la=3 lb=2:     18 shell pairs
          la=3 lb=3:      6 shell pairs

Calculating one electron integrals          ... done (  0.0 sec)
Calculating RI/J V-Matrix + Cholesky decomp.... done (  0.0 sec)
Calculating Nuclear repulsion               ... done (  0.0 sec) ENN=     74.762624973238 Eh

SHARK setup successfully completed in   0.1 seconds

Maximum memory used throughout the entire GTOINT-calculation: 14.9 MB


           ************************************************************
           *        Program running with 8 parallel MPI-processes     *
           *              working on a common directory               *
           ************************************************************
-------------------------------------------------------------------------------
                                 ORCA SCF
-------------------------------------------------------------------------------

------------
SCF SETTINGS
------------
Hamiltonian:
 Density Functional     Method          .... DFT(GTOs)
 Exchange Functional    Exchange        .... PBE
   PBE kappa parameter   XKappa         ....  0.804000
   PBE mue parameter    XMuePBE         ....  0.219520
 Correlation Functional Correlation     .... PBE
   PBE beta parameter  CBetaPBE         ....  0.066725
 LDA part of GGA corr.  LDAOpt          .... PW91-LDA
 Gradients option       PostSCFGGA      .... off
 Hybrid DFT is turned on
   Fraction HF Exchange ScalHFX         ....  0.250000
   Scaling of DF-GGA-X  ScalDFX         ....  0.750000
   Scaling of DF-GGA-C  ScalDFC         ....  1.000000
   Scaling of DF-LDA-C  ScalLDAC        ....  1.000000
   Perturbative correction              ....  0.000000
   Density functional embedding theory  .... OFF
   NL short-range parameter             ....  6.900000
 RI-approximation to the Coulomb term is turned on
   Number of AuxJ basis functions       .... 191
   RIJ-COSX (HFX calculated with COS-X)).... on


General Settings:
 Integral files         IntName         .... ox_gs_A_orca0016
 Hartree-Fock type      HFTyp           .... RHF
 Total Charge           Charge          ....    0
 Multiplicity           Mult            ....    1
 Number of Electrons    NEL             ....   24
 Basis Dimension        Dim             ....  117
 Nuclear Repulsion      ENuc            ....     74.7626249732 Eh

Convergence Acceleration:
 DIIS                   CNVDIIS         .... on
   Start iteration      DIISMaxIt       ....    12
   Startup error        DIISStart       ....  0.200000
   # of expansion vecs  DIISMaxEq       ....     5
   Bias factor          DIISBfac        ....   1.050
   Max. coefficient     DIISMaxC        ....  10.000
 Trust-Rad. Augm. Hess. CNVTRAH         .... auto
   Auto Start mean grad. ratio tolernc. ....  1.125000
   Auto Start start iteration           ....    20
   Auto Start num. interpolation iter.  ....    10
   Max. Number of Micro iterations      ....    16
   Max. Number of Macro iterations      .... Maxiter - #DIIS iter
   Number of Davidson start vectors     ....     2
   Converg. threshold I  (grad. norm)   ....   1.000e-05
   Converg. threshold II (energy diff.) ....   1.000e-08
   Grad. Scal. Fac. for Micro threshold ....   0.100
   Minimum threshold for Micro iter.    ....   0.010
   NR start threshold (gradient norm)   ....   0.001
   Initial trust radius                 ....   0.400
   Minimum AH scaling param. (alpha)    ....   1.000
   Maximum AH scaling param. (alpha)    .... 1000.000
   Orbital update algorithm             .... Taylor
   White noise on init. David. guess    .... on
   Maximum white noise                  ....   0.010
   Quad. conv. algorithm                .... NR
 SOSCF                  CNVSOSCF        .... on
   Start iteration      SOSCFMaxIt      ....   150
   Startup grad/error   SOSCFStart      ....  0.003300
 Level Shifting         CNVShift        .... on
   Level shift para.    LevelShift      ....    0.2500
   Turn off err/grad.   ShiftErr        ....    0.0010
 Zerner damping         CNVZerner       .... off
 Static damping         CNVDamp         .... on
   Fraction old density DampFac         ....    0.7000
   Max. Damping (<1)    DampMax         ....    0.9800
   Min. Damping (>=0)   DampMin         ....    0.0000
   Turn off err/grad.   DampErr         ....    0.1000
 Fernandez-Rico         CNVRico         .... off

SCF Procedure:
 Maximum # iterations   MaxIter         ....   125
 SCF integral mode      SCFMode         .... Direct
   Integral package                     .... SHARK and LIBINT hybrid scheme
 Reset frequency        DirectResetFreq ....    20
 Integral Threshold     Thresh          ....  2.500e-11 Eh
 Primitive CutOff       TCut            ....  2.500e-12 Eh

Convergence Tolerance:
 Convergence Check Mode ConvCheckMode   .... Total+1el-Energy
 Convergence forced     ConvForced      .... 0
 Energy Change          TolE            ....  1.000e-08 Eh
 1-El. energy change                    ....  1.000e-05 Eh
 Orbital Gradient       TolG            ....  1.000e-05
 Orbital Rotation angle TolX            ....  1.000e-05
 DIIS Error             TolErr          ....  5.000e-07


Diagonalization of the overlap matrix:
Smallest eigenvalue                        ... 4.790e-04
Time for diagonalization                   ...    0.001 sec
Threshold for overlap eigenvalues          ... 1.000e-08
Number of eigenvalues below threshold      ... 0
Time for construction of square roots      ...    0.001 sec
Total time needed                          ...    0.003 sec

Time for model grid setup =    0.022 sec

------------------------------
INITIAL GUESS: MODEL POTENTIAL
------------------------------
Loading Hartree-Fock densities                     ... done
Calculating cut-offs                               ... done
Initializing the effective Hamiltonian             ... done
Setting up the integral package (SHARK)            ... done
Starting the Coulomb interaction                   ... done (   0.0 sec)
Reading the grid                                   ... done
Mapping shells                                     ... done
Starting the XC term evaluation                    ... done (   0.0 sec)
  promolecular density results
     # of electrons  =     23.996698861
     EX              =    -19.536954772
     EC              =     -0.781093967
     EX+EC           =    -20.318048739
Transforming the Hamiltonian                       ... done (   0.0 sec)
Diagonalizing the Hamiltonian                      ... done (   0.0 sec)
Back transforming the eigenvectors                 ... done (   0.0 sec)
Now organizing SCF variables                       ... done
                      ------------------
                      INITIAL GUESS DONE (   0.0 sec)
                      ------------------
-------------------
DFT GRID GENERATION
-------------------

General Integration Accuracy     IntAcc      ... 4.388
Radial Grid Type                 RadialGrid  ... OptM3 with GC (2021)
Angular Grid (max. ang.)         AngularGrid ... 4 (Lebedev-302)
Angular grid pruning method      GridPruning ... 4 (adaptive)
Weight generation scheme         WeightScheme... Becke
Basis function cutoff            BFCut       ... 1.0000e-11
Integration weight cutoff        WCut        ... 1.0000e-14
Angular grids for H and He will be reduced by one unit
Partially contracted basis set               ... off
Rotationally invariant grid construction     ... off

Total number of grid points                  ...    31307
Total number of batches                      ...      492
Average number of points per batch           ...       63
Average number of grid points per atom       ...     4472
Time for grid setup =    0.110 sec

--------------------
COSX GRID GENERATION
--------------------

GRIDX 1
-------
General Integration Accuracy     IntAcc      ... 3.816
Radial Grid Type                 RadialGrid  ... OptM3 with GC (2021)
Angular Grid (max. ang.)         AngularGrid ... 1 (Lebedev-50)
Angular grid pruning method      GridPruning ... 4 (adaptive)
Weight generation scheme         WeightScheme... Becke
Basis function cutoff            BFCut       ... 1.0000e-11
Integration weight cutoff        WCut        ... 1.0000e-14
Angular grids for H and He will be reduced by one unit
Partially contracted basis set               ... on
Rotationally invariant grid construction     ... off

Total number of grid points                  ...     4035
Total number of batches                      ...       68
Average number of points per batch           ...       59
Average number of grid points per atom       ...      576
UseSFitting                                  ... on

GRIDX 2
-------
General Integration Accuracy     IntAcc      ... 4.020
Radial Grid Type                 RadialGrid  ... OptM3 with GC (2021)
Angular Grid (max. ang.)         AngularGrid ... 2 (Lebedev-110)
Angular grid pruning method      GridPruning ... 4 (adaptive)
Weight generation scheme         WeightScheme... Becke
Basis function cutoff            BFCut       ... 1.0000e-11
Integration weight cutoff        WCut        ... 1.0000e-14
Angular grids for H and He will be reduced by one unit
Partially contracted basis set               ... on
Rotationally invariant grid construction     ... off

Total number of grid points                  ...     8717
Total number of batches                      ...      140
Average number of points per batch           ...       62
Average number of grid points per atom       ...     1245
UseSFitting                                  ... on

GRIDX 3
-------
General Integration Accuracy     IntAcc      ... 4.338
Radial Grid Type                 RadialGrid  ... OptM3 with GC (2021)
Angular Grid (max. ang.)         AngularGrid ... 3 (Lebedev-194)
Angular grid pruning method      GridPruning ... 4 (adaptive)
Weight generation scheme         WeightScheme... Becke
Basis function cutoff            BFCut       ... 1.0000e-11
Integration weight cutoff        WCut        ... 1.0000e-14
Angular grids for H and He will be reduced by one unit
Partially contracted basis set               ... on
Rotationally invariant grid construction     ... off

Total number of grid points                  ...    19251
Total number of batches                      ...      305
Average number of points per batch           ...       63
Average number of grid points per atom       ...     2750
UseSFitting                                  ... on

Time for X-Grid setup             =    0.073 sec

--------------
SCF ITERATIONS
--------------
ITER       Energy         Delta-E        Max-DP      RMS-DP      [F,P]     Damp
               ***  Starting incremental Fock matrix formation  ***
  0   -153.6055208288   0.000000000000 0.03222592  0.00110839  0.1723028 0.7000
  1   -153.6330022642  -0.027481435366 0.01746713  0.00081620  0.0728269 0.7000
                               ***Turning on DIIS***
  2   -153.6444663096  -0.011464045377 0.02609274  0.00140239  0.0328095 0.0000
  3   -153.6631594097  -0.018693100091 0.01355918  0.00060867  0.0388865 0.0000
  4   -153.6665981116  -0.003438701896 0.00377473  0.00016464  0.0081099 0.0000
  5   -153.6667722482  -0.000174136602 0.00132920  0.00005635  0.0037630 0.0000
                      *** Initiating the SOSCF procedure ***
                           *** Shutting down DIIS ***
                      *** Re-Reading the Fockian *** 
                      *** Removing any level shift *** 
ITER      Energy       Delta-E        Grad      Rot      Max-DP    RMS-DP
  6   -153.66679474  -0.0000224888  0.000103  0.000103  0.000674  0.000026
               *** Restarting incremental Fock matrix formation ***
  7   -153.66678121   0.0000135291  0.000041  0.000063  0.000088  0.000004
  8   -153.66678118   0.0000000261  0.000071  0.000045  0.000056  0.000002
  9   -153.66678124  -0.0000000582  0.000008  0.000010  0.000018  0.000001
 10   -153.66678124   0.0000000008  0.000008  0.000007  0.000011  0.000000
                  ***Gradient check signals convergence***
              ***Rediagonalizing the Fockian in SOSCF/NRSCF***

               *****************************************************
               *                     SUCCESS                       *
               *           SCF CONVERGED AFTER  11 CYCLES          *
               *****************************************************

Old exchange energy                            =     -4.996585495 Eh
New exchange energy                            =     -4.996579733 Eh
Exchange energy change after final integration =      0.000005762 Eh
Total energy after final integration           =   -153.666775480 Eh
Final COS-X integration done in                =     0.247 sec

----------------
TOTAL SCF ENERGY
----------------

Total Energy       :         -153.66677548 Eh           -4181.48554 eV

Components:
Nuclear Repulsion  :           74.76262497 Eh            2034.39445 eV
Electronic Energy  :         -228.42940045 Eh           -6215.88000 eV
One Electron Energy:         -356.22959288 Eh           -9693.50003 eV
Two Electron Energy:          127.80019243 Eh            3477.62003 eV
Max COSX asymmetry :            0.00000301 Eh               0.00008 eV

Virial components:
Potential Energy   :         -306.62637114 Eh           -8343.72775 eV
Kinetic Energy     :          152.95959566 Eh            4162.24220 eV
Virial Ratio       :            2.00462331


DFT components:
N(Alpha)           :       12.000002550184 electrons
N(Beta)            :       12.000002550184 electrons
N(Total)           :       24.000005100368 electrons
E(X)               :      -14.960382558164 Eh       
E(C)               :       -0.789426032792 Eh       
E(XC)              :      -15.749808590955 Eh       
DFET-embed. en.    :        0.000000000000 Eh       

---------------
SCF CONVERGENCE
---------------

  Last Energy change         ...   -2.8523e-09  Tolerance :   1.0000e-08
  Last MAX-Density change    ...    1.1102e-15  Tolerance :   1.0000e-07
  Last RMS-Density change    ...    2.2392e-17  Tolerance :   5.0000e-09
  Last Orbital Gradient      ...    5.4985e-07  Tolerance :   1.0000e-05
  Last Orbital Rotation      ...    1.0791e-06  Tolerance :   1.0000e-05

             **** THE GBW FILE WAS UPDATED (ox_gs_A_orca0016.gbw) ****
             **** DENSITY ox_gs_A_orca0016.scfp WAS UPDATED ****
             **** ENERGY FILE WAS UPDATED (ox_gs_A_orca0016.en.tmp) ****
             **** THE GBW FILE WAS UPDATED (ox_gs_A_orca0016.gbw) ****
             **** DENSITY ox_gs_A_orca0016.scfp WAS UPDATED ****
----------------
ORBITAL ENERGIES
----------------

  NO   OCC          E(Eh)            E(eV) 
   0   2.0000     -19.222538      -523.0718 
   1   2.0000     -10.281528      -279.7746 
   2   2.0000     -10.269764      -279.4545 
   3   2.0000      -1.094223       -29.7753 
   4   2.0000      -0.700697       -19.0669 
   5   2.0000      -0.661493       -18.0001 
   6   2.0000      -0.527422       -14.3519 
   7   2.0000      -0.500288       -13.6135 
   8   2.0000      -0.414778       -11.2867 
   9   2.0000      -0.402177       -10.9438 
  10   2.0000      -0.327596        -8.9144 
  11   2.0000      -0.289848        -7.8872 
  12   0.0000       0.066199         1.8014 
  13   0.0000       0.074389         2.0242 
  14   0.0000       0.079710         2.1690 
  15   0.0000       0.101740         2.7685 
  16   0.0000       0.105494         2.8706 
  17   0.0000       0.153942         4.1890 
  18   0.0000       0.193225         5.2579 
  19   0.0000       0.212525         5.7831 
  20   0.0000       0.267226         7.2716 
  21   0.0000       0.270751         7.3675 
  22   0.0000       0.287250         7.8165 
  23   0.0000       0.326493         8.8843 
  24   0.0000       0.394163        10.7257 
  25   0.0000       0.402584        10.9549 
  26   0.0000       0.404973        11.0199 
  27   0.0000       0.420495        11.4422 
  28   0.0000       0.453148        12.3308 
  29   0.0000       0.466141        12.6843 
  30   0.0000       0.502495        13.6736 
  31   0.0000       0.515791        14.0354 
  32   0.0000       0.538158        14.6440 
  33   0.0000       0.700608        19.0645 
  34   0.0000       0.711943        19.3730 
  35   0.0000       0.723187        19.6789 
  36   0.0000       0.823451        22.4072 
  37   0.0000       0.851153        23.1610 
  38   0.0000       0.894324        24.3358 
  39   0.0000       0.936980        25.4965 
  40   0.0000       1.011309        27.5191 
  41   0.0000       1.022182        27.8150 
  42   0.0000       1.074592        29.2411 
  43   0.0000       1.082822        29.4651 
  44   0.0000       1.161602        31.6088 
  45   0.0000       1.350822        36.7577 
  46   0.0000       1.467876        39.9429 
  47   0.0000       1.488183        40.4955 
  48   0.0000       1.506547        40.9952 
  49   0.0000       1.510022        41.0898 
  50   0.0000       1.583669        43.0938 
  51   0.0000       1.625729        44.2383 
  52   0.0000       1.669514        45.4298 
  53   0.0000       1.712413        46.5971 
  54   0.0000       1.768148        48.1138 
  55   0.0000       1.823118        49.6096 
  56   0.0000       1.848547        50.3015 
  57   0.0000       1.904041        51.8116 
  58   0.0000       1.911984        52.0277 
  59   0.0000       1.965146        53.4743 
  60   0.0000       2.155291        58.6484 
  61   0.0000       2.165330        58.9216 
  62   0.0000       2.182341        59.3845 
  63   0.0000       2.245334        61.0987 
  64   0.0000       2.256652        61.4066 
  65   0.0000       2.415921        65.7406 
  66   0.0000       2.432695        66.1970 
  67   0.0000       2.502867        68.1065 
  68   0.0000       2.565134        69.8008 
  69   0.0000       2.571376        69.9707 
  70   0.0000       2.629357        71.5484 
  71   0.0000       2.675334        72.7995 
  72   0.0000       2.686252        73.0966 
  73   0.0000       2.702275        73.5326 
  74   0.0000       2.745418        74.7066 
  75   0.0000       2.807974        76.4089 
  76   0.0000       2.836271        77.1789 
  77   0.0000       2.949364        80.2563 
  78   0.0000       2.996863        81.5488 
  79   0.0000       3.010940        81.9318 
  80   0.0000       3.046082        82.8881 
  81   0.0000       3.106965        84.5448 
  82   0.0000       3.138373        85.3995 
  83   0.0000       3.227696        87.8301 
  84   0.0000       3.307969        90.0144 
  85   0.0000       3.328148        90.5635 
  86   0.0000       3.338087        90.8340 
  87   0.0000       3.420270        93.0703 
  88   0.0000       3.548558        96.5612 
  89   0.0000       3.602532        98.0299 
  90   0.0000       3.650493        99.3350 
  91   0.0000       3.696699       100.5923 
  92   0.0000       3.876941       105.4969 
  93   0.0000       4.030160       109.6662 
  94   0.0000       4.102610       111.6377 
  95   0.0000       4.165965       113.3617 
  96   0.0000       4.263165       116.0066 
  97   0.0000       4.317320       117.4802 
  98   0.0000       4.336996       118.0157 
  99   0.0000       4.608923       125.4152 
 100   0.0000       4.747271       129.1798 
 101   0.0000       4.824986       131.2945 
 102   0.0000       5.295813       144.1064 
 103   0.0000       5.446195       148.1985 
 104   0.0000       5.685252       154.7036 
 105   0.0000       5.740916       156.2183 
 106   0.0000       5.767484       156.9412 
 107   0.0000       5.884990       160.1387 
 108   0.0000       6.031685       164.1305 
 109   0.0000       6.605526       179.7455 
 110   0.0000       6.620971       180.1658 
 111   0.0000       6.781167       184.5249 
 112   0.0000       6.961703       189.4376 
 113   0.0000       7.182095       195.4348 
 114   0.0000      22.263296       605.8151 
 115   0.0000      22.482058       611.7679 
 116   0.0000      43.850639      1193.2365 

                    ********************************
                    * MULLIKEN POPULATION ANALYSIS *
                    ********************************

-----------------------
MULLIKEN ATOMIC CHARGES
-----------------------
   0 O :   -0.316808
   1 C :   -0.067301
   2 C :   -0.084452
   3 H :    0.117712
   4 H :    0.110588
   5 H :    0.125642
   6 H :    0.114619
Sum of atomic charges:    0.0000000

--------------------------------
MULLIKEN REDUCED ORBITAL CHARGES
--------------------------------
  0 O s       :     3.857691  s :     3.857691
      pz      :     1.848995  p :     4.415388
      px      :     1.308709
      py      :     1.257684
      dz2     :     0.005708  d :     0.041638
      dxz     :     0.002530
      dyz     :     0.006327
      dx2y2   :     0.011839
      dxy     :     0.015234
      f0      :     0.000243  f :     0.002090
      f+1     :     0.000199
      f-1     :     0.000458
      f+2     :     0.000075
      f-2     :     0.000194
      f+3     :     0.000364
      f-3     :     0.000557
  1 C s       :     3.217621  s :     3.217621
      pz      :     1.050728  p :     2.729432
      px      :     0.903256
      py      :     0.775447
      dz2     :     0.005453  d :     0.108855
      dxz     :     0.024136
      dyz     :     0.030460
      dx2y2   :     0.028652
      dxy     :     0.020153
      f0      :     0.001482  f :     0.011393
      f+1     :     0.001392
      f-1     :     0.000649
      f+2     :     0.001247
      f-2     :     0.001619
      f+3     :     0.002134
      f-3     :     0.002869
  2 C s       :     3.237911  s :     3.237911
      pz      :     1.043776  p :     2.730047
      px      :     0.895886
      py      :     0.790384
      dz2     :     0.005900  d :     0.105447
      dxz     :     0.025421
      dyz     :     0.027718
      dx2y2   :     0.027402
      dxy     :     0.019007
      f0      :     0.001397  f :     0.011047
      f+1     :     0.001418
      f-1     :     0.000562
      f+2     :     0.001167
      f-2     :     0.001617
      f+3     :     0.002173
      f-3     :     0.002714
  3 H s       :     0.858820  s :     0.858820
      pz      :     0.010890  p :     0.023468
      px      :     0.007446
      py      :     0.005133
  4 H s       :     0.868016  s :     0.868016
      pz      :     0.010848  p :     0.021396
      px      :     0.006620
      py      :     0.003927
  5 H s       :     0.853233  s :     0.853233
      pz      :     0.010487  p :     0.021125
      px      :     0.006966
      py      :     0.003672
  6 H s       :     0.864558  s :     0.864558
      pz      :     0.010788  p :     0.020822
      px      :     0.006036
      py      :     0.003999


                     *******************************
                     * LOEWDIN POPULATION ANALYSIS *
                     *******************************

----------------------
LOEWDIN ATOMIC CHARGES
----------------------
   0 O :    0.105454
   1 C :   -0.277136
   2 C :   -0.272779
   3 H :    0.092753
   4 H :    0.115408
   5 H :    0.116818
   6 H :    0.119483

-------------------------------
LOEWDIN REDUCED ORBITAL CHARGES
-------------------------------
  0 O s       :     3.397361  s :     3.397361
      pz      :     1.735262  p :     4.400782
      px      :     1.298407
      py      :     1.367113
      dz2     :     0.011480  d :     0.090123
      dxz     :     0.007678
      dyz     :     0.014097
      dx2y2   :     0.031310
      dxy     :     0.025557
      f0      :     0.000592  f :     0.006281
      f+1     :     0.000255
      f-1     :     0.000865
      f+2     :     0.000152
      f-2     :     0.000903
      f+3     :     0.001173
      f-3     :     0.002340
  1 C s       :     2.812916  s :     2.812916
      pz      :     1.067931  p :     2.925047
      px      :     1.021444
      py      :     0.835672
      dz2     :     0.053070  d :     0.468671
      dxz     :     0.124485
      dyz     :     0.087098
      dx2y2   :     0.107089
      dxy     :     0.096929
      f0      :     0.009213  f :     0.070503
      f+1     :     0.005950
      f-1     :     0.005930
      f+2     :     0.007995
      f-2     :     0.006938
      f+3     :     0.014755
      f-3     :     0.019722
  2 C s       :     2.840805  s :     2.840805
      pz      :     1.059063  p :     2.919479
      px      :     1.018373
      py      :     0.842044
      dz2     :     0.050958  d :     0.446587
      dxz     :     0.127857
      dyz     :     0.075782
      dx2y2   :     0.100076
      dxy     :     0.091913
      f0      :     0.008574  f :     0.065908
      f+1     :     0.005540
      f-1     :     0.005290
      f+2     :     0.007170
      f-2     :     0.006749
      f+3     :     0.014731
      f-3     :     0.017855
  3 H s       :     0.831396  s :     0.831396
      pz      :     0.036664  p :     0.075852
      px      :     0.022362
      py      :     0.016826
  4 H s       :     0.822425  s :     0.822425
      pz      :     0.032534  p :     0.062168
      px      :     0.017786
      py      :     0.011848
  5 H s       :     0.821516  s :     0.821516
      pz      :     0.031901  p :     0.061666
      px      :     0.018677
      py      :     0.011087
  6 H s       :     0.820926  s :     0.820926
      pz      :     0.031918  p :     0.059591
      px      :     0.016027
      py      :     0.011647


                      *****************************
                      * MAYER POPULATION ANALYSIS *
                      *****************************

  NA   - Mulliken gross atomic population
  ZA   - Total nuclear charge
  QA   - Mulliken gross atomic charge
  VA   - Mayer's total valence
  BVA  - Mayer's bonded valence
  FA   - Mayer's free valence

  ATOM       NA         ZA         QA         VA         BVA        FA
  0 O      8.3168     8.0000    -0.3168     1.9902     1.9902     0.0000
  1 C      6.0673     6.0000    -0.0673     3.9846     3.9846    -0.0000
  2 C      6.0845     6.0000    -0.0845     3.9582     3.9582     0.0000
  3 H      0.8823     1.0000     0.1177     0.9569     0.9569    -0.0000
  4 H      0.8894     1.0000     0.1106     0.9621     0.9621    -0.0000
  5 H      0.8744     1.0000     0.1256     0.9604     0.9604     0.0000
  6 H      0.8854     1.0000     0.1146     0.9609     0.9609     0.0000

  Mayer bond orders larger than 0.100000
B(  0-O ,  1-C ) :   0.9916 B(  0-O ,  2-C ) :   0.9826 B(  1-C ,  2-C ) :   1.0605 
B(  1-C ,  3-H ) :   0.9595 B(  1-C ,  4-H ) :   0.9589 B(  2-C ,  5-H ) :   0.9511 
B(  2-C ,  6-H ) :   0.9529 

-------
TIMINGS
-------

Total SCF time: 0 days 0 hours 0 min 2 sec 

Total time                  ....       2.518 sec
Sum of individual times     ....       2.317 sec  ( 92.0%)

Fock matrix formation       ....       2.053 sec  ( 81.5%)
  Split-RI-J                ....       0.228 sec  ( 11.1% of F)
  Chain of spheres X        ....       1.371 sec  ( 66.8% of F)
  XC integration            ....       0.390 sec  ( 19.0% of F)
    Basis function eval.    ....       0.102 sec  ( 26.2% of XC)
    Density eval.           ....       0.077 sec  ( 19.7% of XC)
    XC-Functional eval.     ....       0.022 sec  (  5.6% of XC)
    XC-Potential eval.      ....       0.138 sec  ( 35.4% of XC)
Diagonalization             ....       0.015 sec  (  0.6%)
Density matrix formation    ....       0.001 sec  (  0.1%)
Population analysis         ....       0.003 sec  (  0.1%)
Initial guess               ....       0.017 sec  (  0.7%)
Orbital Transformation      ....       0.000 sec  (  0.0%)
Orbital Orthonormalization  ....       0.000 sec  (  0.0%)
DIIS solution               ....       0.012 sec  (  0.5%)
SOSCF solution              ....       0.010 sec  (  0.4%)
Grid generation             ....       0.205 sec  (  8.1%)

Maximum memory used throughout the entire SCF-calculation: 61.0 MB


-------------------------------------------------------------------------------
                          DFT DISPERSION CORRECTION                            
                                                                               
                              DFTD3 V3.1  Rev 1                                
                          USING Becke-Johnson damping                          
-------------------------------------------------------------------------------
The PBE0 functional is recognized
Active option DFTDOPT                   ...         4   

molecular C6(AA) [au] = 350.834092 


            DFT-D V3
 parameters
 s6 scaling factor         :     1.0000 
 a1 scaling factor         :     0.4145 
 s8 scaling factor         :     1.2177 
 a2 scaling factor         :     4.8593 
 ad hoc parameters k1-k3   :    16.0000     1.3333    -4.0000 

 Edisp/kcal,au: -1.506776389348  -0.002401200764 
 E6   /kcal   :  -0.987707872 
 E8   /kcal   :  -0.519068517 
 % E8         :  34.448941532 

-------------------------   ----------------
Dispersion correction           -0.002401201
-------------------------   ----------------


-------------------------   --------------------
FINAL SINGLE POINT ENERGY      -153.669176680724
-------------------------   --------------------



           ************************************************************
           *        Program running with 8 parallel MPI-processes     *
           *              working on a common directory               *
           ************************************************************
------------------------------------------------------------------------------
                         ORCA SCF GRADIENT CALCULATION
------------------------------------------------------------------------------

 ... reading COSX grid (gridx3)
Gradient of the Kohn-Sham DFT energy:
Kohn-Sham wavefunction type      ... RKS
Hartree-Fock exchange scaling    ...    0.250
Number of operators              ...    1
Number of atoms                  ...    7
Basis set dimensions             ...  117
Integral neglect threshold       ... 2.5e-11
Integral primitive cutoff        ... 2.5e-12
SHARK Integral package           ... ON

Nuc. rep. gradient       (SHARK) ... done (  0.0 sec)
HCore & Overlap gradient (SHARK) ... done (  0.0 sec)
RI-J gradient            (SHARK) ... done (  0.1 sec)
COSX-gradient                    ... done (  0.3 sec)
Exchange-correlation gradient    ... done
Dispersion correction            ... done

------------------
CARTESIAN GRADIENT
------------------

   1   O   :   -0.007098090    0.021574032   -0.003300718
   2   C   :   -0.059020062   -0.022010101    0.066395449
   3   C   :    0.022676822   -0.011639691   -0.014180013
   4   H   :    0.029646065    0.015197782   -0.060735804
   5   H   :    0.000242119    0.000913868    0.004242515
   6   H   :    0.008994158    0.000303202   -0.001860781
   7   H   :    0.004669655   -0.004532243    0.009576881

Difference to translation invariance:
           :    0.0001106671   -0.0001931500    0.0001375298

Difference to rotation invariance:
           :    0.0002053386    0.0000143995   -0.0001072295

Norm of the cartesian gradient     ...    0.1216132522
RMS gradient                       ...    0.0265381873
MAX gradient                       ...    0.0663954495

-------
TIMINGS
-------

Total SCF gradient time            ...        0.680 sec

One electron gradient       ....       0.010 sec  (  1.4%)
RI-J Coulomb gradient       ....       0.079 sec  ( 11.6%)
COSX gradient               ....       0.297 sec  ( 43.6%)
XC gradient                 ....       0.155 sec  ( 22.8%)

Maximum memory used throughout the entire SCFGRAD-calculation: 35.9 MB

                            ***************************************
                            *     ORCA property calculations      *
                            ***************************************

                                    ---------------------
                                    Active property flags
                                    ---------------------
   (+) Dipole Moment


------------------------------------------------------------------------------
                       ORCA ELECTRIC PROPERTIES CALCULATION
------------------------------------------------------------------------------

Dipole Moment Calculation                       ... on
Quadrupole Moment Calculation                   ... off
Polarizability Calculation                      ... off
GBWName                                         ... ox_gs_A_orca0016.gbw
Electron density                                ... ox_gs_A_orca0016.scfp
The origin for moment calculation is the CENTER OF MASS  = (-0.034442, -0.099054  0.005556)

-------------
DIPOLE MOMENT
-------------
                                X             Y             Z
Electronic contribution:     -0.10517       1.63479       0.06482
Nuclear contribution   :      0.11355      -2.38397      -0.07058
                        -----------------------------------------
Total Dipole Moment    :      0.00838      -0.74918      -0.00576
                        -----------------------------------------
Magnitude (a.u.)       :      0.74925
Magnitude (Debye)      :      1.90445



--------------------
Rotational spectrum 
--------------------
 
Rotational constants in cm-1:     0.858381     0.717746     0.460960 
Rotational constants in MHz : 25733.621784 21517.473057 13819.223133 

 Dipole components along the rotational axes: 
x,y,z [a.u.] :    -0.055539    -0.747161     0.006796 
x,y,z [Debye]:    -0.141168    -1.899133     0.017274 

 

Timings for individual modules:

Sum of individual times         ...        3.959 sec (=   0.066 min)
GTO integral calculation        ...        0.317 sec (=   0.005 min)   8.0 %
SCF iterations                  ...        2.711 sec (=   0.045 min)  68.5 %
SCF Gradient evaluation         ...        0.930 sec (=   0.016 min)  23.5 %
                             ****ORCA TERMINATED NORMALLY****
TOTAL RUN TIME: 0 days 0 hours 0 minutes 4 seconds 251 msec
