
                                 *****************
                                 * O   R   C   A *
                                 *****************

                                            #,                                       
                                            ###                                      
                                            ####                                     
                                            #####                                    
                                            ######                                   
                                           ########,                                 
                                     ,,################,,,,,                         
                               ,,#################################,,                 
                          ,,##########################################,,             
                       ,#########################################, ''#####,          
                    ,#############################################,,   '####,        
                  ,##################################################,,,,####,       
                ,###########''''           ''''###############################       
              ,#####''   ,,,,##########,,,,          '''####'''          '####       
            ,##' ,,,,###########################,,,                        '##       
           ' ,,###''''                  '''############,,,                           
         ,,##''                                '''############,,,,        ,,,,,,###''
      ,#''                                            '''#######################'''  
     '                                                          ''''####''''         
             ,#######,   #######,   ,#######,      ##                                
            ,#'     '#,  ##    ##  ,#'     '#,    #''#        ######   ,####,        
            ##       ##  ##   ,#'  ##            #'  '#       #        #'  '#        
            ##       ##  #######   ##           ,######,      #####,   #    #        
            '#,     ,#'  ##    ##  '#,     ,#' ,#      #,         ##   #,  ,#        
             '#######'   ##     ##  '#######'  #'      '#     #####' # '####'        



                  #######################################################
                  #                        -***-                        #
                  #          Department of theory and spectroscopy      #
                  #    Directorship and core code : Frank Neese         #
                  #        Max Planck Institute fuer Kohlenforschung    #
                  #                Kaiser Wilhelm Platz 1               #
                  #                 D-45470 Muelheim/Ruhr               #
                  #                      Germany                        #
                  #                                                     #
                  #                  All rights reserved                #
                  #                        -***-                        #
                  #######################################################


                         Program Version 5.0.2 -  RELEASE  -


 With contributions from (in alphabetic order):
   Daniel Aravena         : Magnetic Suceptibility
   Michael Atanasov       : Ab Initio Ligand Field Theory (pilot matlab implementation)
   Alexander A. Auer      : GIAO ZORA, VPT2 properties, NMR spectrum
   Ute Becker             : Parallelization
   Giovanni Bistoni       : ED, misc. LED, open-shell LED, HFLD
   Martin Brehm           : Molecular dynamics
   Dmytro Bykov           : SCF Hessian
   Vijay G. Chilkuri      : MRCI spin determinant printing, contributions to CSF-ICE
   Dipayan Datta          : RHF DLPNO-CCSD density
   Achintya Kumar Dutta   : EOM-CC, STEOM-CC
   Dmitry Ganyushin       : Spin-Orbit,Spin-Spin,Magnetic field MRCI
   Miquel Garcia          : C-PCM and meta-GGA Hessian, CC/C-PCM, Gaussian charge scheme
   Yang Guo               : DLPNO-NEVPT2, F12-NEVPT2, CIM, IAO-localization
   Andreas Hansen         : Spin unrestricted coupled pair/coupled cluster methods
   Benjamin Helmich-Paris : MC-RPA, TRAH-SCF, COSX integrals
   Lee Huntington         : MR-EOM, pCC
   Robert Izsak           : Overlap fitted RIJCOSX, COSX-SCS-MP3, EOM
   Marcus Kettner         : VPT2
   Christian Kollmar      : KDIIS, OOCD, Brueckner-CCSD(T), CCSD density, CASPT2, CASPT2-K
   Simone Kossmann        : Meta GGA functionals, TD-DFT gradient, OOMP2, MP2 Hessian
   Martin Krupicka        : Initial AUTO-CI
   Lucas Lang             : DCDCAS
   Marvin Lechner         : AUTO-CI (C++ implementation), FIC-MRCC
   Dagmar Lenk            : GEPOL surface, SMD
   Dimitrios Liakos       : Extrapolation schemes; Compound Job, initial MDCI parallelization
   Dimitrios Manganas     : Further ROCIS development; embedding schemes
   Dimitrios Pantazis     : SARC Basis sets
   Anastasios Papadopoulos: AUTO-CI, single reference methods and gradients
   Taras Petrenko         : DFT Hessian,TD-DFT gradient, ASA, ECA, R-Raman, ABS, FL, XAS/XES, NRVS
   Peter Pinski           : DLPNO-MP2, DLPNO-MP2 Gradient
   Christoph Reimann      : Effective Core Potentials
   Marius Retegan         : Local ZFS, SOC
   Christoph Riplinger    : Optimizer, TS searches, QM/MM, DLPNO-CCSD(T), (RO)-DLPNO pert. Triples
   Tobias Risthaus        : Range-separated hybrids, TD-DFT gradient, RPA, STAB
   Michael Roemelt        : Original ROCIS implementation
   Masaaki Saitow         : Open-shell DLPNO-CCSD energy and density
   Barbara Sandhoefer     : DKH picture change effects
   Avijit Sen             : IP-ROCIS
   Kantharuban Sivalingam : CASSCF convergence, NEVPT2, FIC-MRCI
   Bernardo de Souza      : ESD, SOC TD-DFT
   Georgi Stoychev        : AutoAux, RI-MP2 NMR, DLPNO-MP2 response
   Willem Van den Heuvel  : Paramagnetic NMR
   Boris Wezisla          : Elementary symmetry handling
   Frank Wennmohs         : Technical directorship


 We gratefully acknowledge several colleagues who have allowed us to
 interface, adapt or use parts of their codes:
   Stefan Grimme, W. Hujo, H. Kruse, P. Pracht,  : VdW corrections, initial TS optimization,
                  C. Bannwarth, S. Ehlert          DFT functionals, gCP, sTDA/sTD-DF
   Ed Valeev, F. Pavosevic, A. Kumar             : LibInt (2-el integral package), F12 methods
   Garnet Chan, S. Sharma, J. Yang, R. Olivares  : DMRG
   Ulf Ekstrom                                   : XCFun DFT Library
   Mihaly Kallay                                 : mrcc  (arbitrary order and MRCC methods)
   Jiri Pittner, Ondrej Demel                    : Mk-CCSD
   Frank Weinhold                                : gennbo (NPA and NBO analysis)
   Christopher J. Cramer and Donald G. Truhlar   : smd solvation model
   Lars Goerigk                                  : TD-DFT with DH, B97 family of functionals
   V. Asgeirsson, H. Jonsson                     : NEB implementation
   FAccTs GmbH                                   : IRC, NEB, NEB-TS, DLPNO-Multilevel, CI-OPT
                                                   MM, QMMM, 2- and 3-layer-ONIOM, Crystal-QMMM,
                                                   LR-CPCM, SF, NACMEs, symmetry and pop. for TD-DFT,
                                                   nearIR, NL-DFT gradient (VV10), updates on ESD,
                                                   ML-optimized integration grids
   S Lehtola, MJT Oliveira, MAL Marques          : LibXC Library
   Liviu Ungur et al                             : ANISO software


 Your calculation uses the libint2 library for the computation of 2-el integrals
 For citations please refer to: http://libint.valeyev.net

 Your ORCA version has been built with support for libXC version: 5.1.0
 For citations please refer to: https://tddft.org/programs/libxc/

 This ORCA versions uses:
   CBLAS   interface :  Fast vector & matrix operations
   LAPACKE interface :  Fast linear algebra routines
   SCALAPACK package :  Parallel linear algebra routines
   Shared memory     :  Shared parallel matrices
   BLAS/LAPACK       :  OpenBLAS 0.3.15  USE64BITINT DYNAMIC_ARCH NO_AFFINITY SkylakeX SINGLE_THREADED
        Core in use  :  SkylakeX
   Copyright (c) 2011-2014, The OpenBLAS Project


Your calculation utilizes the atom-pairwise dispersion correction
with the Becke-Johnson damping scheme (D3BJ)
Cite in your paper:
S.Grimme, S.Ehrlich, L.Goerigk, J Comput Chem, (2011), 32, 1456–1465 
S.Grimme, J.Antony, S.Ehrlich and H.Krieg, J.Chem.Phys., 132, (2010), 154104 
   

================================================================================

----- Orbital basis set information -----
Your calculation utilizes the basis: def2-TZVP
   F. Weigend and R. Ahlrichs, Phys. Chem. Chem. Phys. 7, 3297 (2005).

----- AuxJ basis set information -----
Your calculation utilizes the auxiliary basis: def2/J
   F. Weigend, Phys. Chem. Chem. Phys. 8, 1057 (2006).

================================================================================
                                        WARNINGS
                       Please study these warnings very carefully!
================================================================================


INFO   : the flag for use of the SHARK integral package has been found!

================================================================================
                                       INPUT FILE
================================================================================
NAME = ox_gs_E_orca0008.inp
|  1> ! engrad PBE0 D3BJ def2-TZVP  
|  2> %pal nprocs 8 end
|  3> %maxcore 3000
|  4>  
|  5> *xyz 0 1 
|  6> O   -0.8744211899781744 1.0316561987153434 -0.02710648280295611
|  7> C   -0.7070118403386143 -0.4130161709232789 -0.053022985798070056
|  8> C   0.7287998948021709 -0.4320916164327292 0.013349535823322524
|  9> H   -1.2726054453418862 -0.6052289420968379 0.9663233387867357
| 10> H   -1.183357144107224 -0.710669112027649 -0.9091622697433602
| 11> H   1.331424410597199 -0.6718611107528829 -0.9090997867277901
| 12> H   1.2419530228645375 -0.6963530938897408 0.942057754606721
| 13> *
| 14> 
| 15>                          ****END OF INPUT****
================================================================================

                     *******************************
                     * Energy+Gradient Calculation *
                     *******************************

---------------------------------
CARTESIAN COORDINATES (ANGSTROEM)
---------------------------------
  O     -0.874421    1.031656   -0.027106
  C     -0.707012   -0.413016   -0.053023
  C      0.728800   -0.432092    0.013350
  H     -1.272605   -0.605229    0.966323
  H     -1.183357   -0.710669   -0.909162
  H      1.331424   -0.671861   -0.909100
  H      1.241953   -0.696353    0.942058

----------------------------
CARTESIAN COORDINATES (A.U.)
----------------------------
  NO LB      ZA    FRAG     MASS         X           Y           Z
   0 O     8.0000    0    15.999   -1.652417    1.949548   -0.051224
   1 C     6.0000    0    12.011   -1.336059   -0.780487   -0.100199
   2 C     6.0000    0    12.011    1.377232   -0.816535    0.025227
   3 H     1.0000    0     1.008   -2.404876   -1.143717    1.826086
   4 H     1.0000    0     1.008   -2.236221   -1.342970   -1.718068
   5 H     1.0000    0     1.008    2.516028   -1.269633   -1.717950
   6 H     1.0000    0     1.008    2.346951   -1.315917    1.780231

--------------------------------
INTERNAL COORDINATES (ANGSTROEM)
--------------------------------
 O      0   0   0     0.000000000000     0.00000000     0.00000000
 C      1   0   0     1.454570662110     0.00000000     0.00000000
 C      2   1   0     1.437471572942    97.31453275     0.00000000
 H      2   1   3     1.181485846241    95.22758214   116.95720494
 H      2   1   3     1.023951461391   104.48156551   236.41410311
 H      3   2   1     1.127634014261   119.92382081   254.91276146
 H      3   2   1     1.093462032694   120.74202186   104.52659858

---------------------------
INTERNAL COORDINATES (A.U.)
---------------------------
 O      0   0   0     0.000000000000     0.00000000     0.00000000
 C      1   0   0     2.748740193825     0.00000000     0.00000000
 C      2   1   0     2.716427598157    97.31453275     0.00000000
 H      2   1   3     2.232684680499    95.22758214   116.95720494
 H      2   1   3     1.934987836458   104.48156551   236.41410311
 H      3   2   1     2.130919466248   119.92382081   254.91276146
 H      3   2   1     2.066343779633   120.74202186   104.52659858

---------------------
BASIS SET INFORMATION
---------------------
There are 3 groups of distinct atoms

 Group   1 Type O   : 11s6p2d1f contracted to 5s3p2d1f pattern {62111/411/11/1}
 Group   2 Type C   : 11s6p2d1f contracted to 5s3p2d1f pattern {62111/411/11/1}
 Group   3 Type H   : 5s1p contracted to 3s1p pattern {311/1}

Atom   0O    basis set group =>   1
Atom   1C    basis set group =>   2
Atom   2C    basis set group =>   2
Atom   3H    basis set group =>   3
Atom   4H    basis set group =>   3
Atom   5H    basis set group =>   3
Atom   6H    basis set group =>   3
---------------------------------
AUXILIARY/J BASIS SET INFORMATION
---------------------------------
There are 3 groups of distinct atoms

 Group   1 Type O   : 12s5p4d2f1g contracted to 6s4p3d1f1g pattern {711111/2111/211/2/1}
 Group   2 Type C   : 12s5p4d2f1g contracted to 6s4p3d1f1g pattern {711111/2111/211/2/1}
 Group   3 Type H   : 5s2p1d contracted to 3s1p1d pattern {311/2/1}

Atom   0O    basis set group =>   1
Atom   1C    basis set group =>   2
Atom   2C    basis set group =>   2
Atom   3H    basis set group =>   3
Atom   4H    basis set group =>   3
Atom   5H    basis set group =>   3
Atom   6H    basis set group =>   3


           ************************************************************
           *        Program running with 8 parallel MPI-processes     *
           *              working on a common directory               *
           ************************************************************
------------------------------------------------------------------------------
                           ORCA GTO INTEGRAL CALCULATION
                           -- RI-GTO INTEGRALS CHOSEN --
------------------------------------------------------------------------------
------------------------------------------------------------------------------
                   ___                                                        
                  /   \      - P O W E R E D   B Y -                         
                 /     \                                                     
                 |  |  |   _    _      __       _____    __    __             
                 |  |  |  | |  | |    /  \     |  _  \  |  |  /  |          
                  \  \/   | |  | |   /    \    | | | |  |  | /  /          
                 / \  \   | |__| |  /  /\  \   | |_| |  |  |/  /          
                |  |  |   |  __  | /  /__\  \  |    /   |      \           
                |  |  |   | |  | | |   __   |  |    \   |  |\   \          
                \     /   | |  | | |  |  |  |  | |\  \  |  | \   \       
                 \___/    |_|  |_| |__|  |__|  |_| \__\ |__|  \__/        
                                                                              
                      - O R C A' S   B I G   F R I E N D -                    
                                      &                                       
                       - I N T E G R A L  F E E D E R -                       
                                                                              
 v1 FN, 2020, v2 2021                                                         
------------------------------------------------------------------------------


Reading SHARK input file ox_gs_E_orca0008.SHARKINP.tmp ... ok
----------------------
SHARK INTEGRAL PACKAGE
----------------------

Number of atoms                             ...      7
Number of basis functions                   ...    117
Number of shells                            ...     49
Maximum angular momentum                    ...      3
Integral batch strategy                     ... SHARK/LIBINT Hybrid
RI-J (if used) integral strategy            ... SPLIT-RIJ (Revised 2003 algorithm where possible)
Printlevel                                  ...      1
Contraction scheme used                     ... SEGMENTED contraction
Coulomb Range Separation                    ... NOT USED
Exchange Range Separation                   ... NOT USED
Finite Nucleus Model                        ... NOT USED
Auxiliary Coulomb fitting basis             ... AVAILABLE
   # of basis functions in Aux-J            ...    191
   # of shells in Aux-J                     ...     65
   Maximum angular momentum in Aux-J        ...      4
Auxiliary J/K fitting basis                 ... NOT available
Auxiliary Correlation fitting basis         ... NOT available
Auxiliary 'external' fitting basis          ... NOT available
Integral threshold                          ...     2.500000e-11
Primitive cut-off                           ...     2.500000e-12
Primitive pair pre-selection threshold      ...     2.500000e-12

Calculating pre-screening integrals         ... done (  0.0 sec) Dimension = 49
Organizing shell pair data                  ... done (  0.0 sec)
Shell pair information
Total number of shell pairs                 ...      1225
Shell pairs after pre-screening             ...      1213
Total number of primitive shell pairs       ...      3648
Primitive shell pairs kept                  ...      3080
          la=0 lb=0:    367 shell pairs
          la=1 lb=0:    351 shell pairs
          la=1 lb=1:     91 shell pairs
          la=2 lb=0:    161 shell pairs
          la=2 lb=1:     78 shell pairs
          la=2 lb=2:     21 shell pairs
          la=3 lb=0:     81 shell pairs
          la=3 lb=1:     39 shell pairs
          la=3 lb=2:     18 shell pairs
          la=3 lb=3:      6 shell pairs

Calculating one electron integrals          ... done (  0.0 sec)
Calculating RI/J V-Matrix + Cholesky decomp.... done (  0.0 sec)
Calculating Nuclear repulsion               ... done (  0.0 sec) ENN=     68.237293465057 Eh

SHARK setup successfully completed in   0.1 seconds

Maximum memory used throughout the entire GTOINT-calculation: 14.9 MB


           ************************************************************
           *        Program running with 8 parallel MPI-processes     *
           *              working on a common directory               *
           ************************************************************
-------------------------------------------------------------------------------
                                 ORCA SCF
-------------------------------------------------------------------------------

------------
SCF SETTINGS
------------
Hamiltonian:
 Density Functional     Method          .... DFT(GTOs)
 Exchange Functional    Exchange        .... PBE
   PBE kappa parameter   XKappa         ....  0.804000
   PBE mue parameter    XMuePBE         ....  0.219520
 Correlation Functional Correlation     .... PBE
   PBE beta parameter  CBetaPBE         ....  0.066725
 LDA part of GGA corr.  LDAOpt          .... PW91-LDA
 Gradients option       PostSCFGGA      .... off
 Hybrid DFT is turned on
   Fraction HF Exchange ScalHFX         ....  0.250000
   Scaling of DF-GGA-X  ScalDFX         ....  0.750000
   Scaling of DF-GGA-C  ScalDFC         ....  1.000000
   Scaling of DF-LDA-C  ScalLDAC        ....  1.000000
   Perturbative correction              ....  0.000000
   Density functional embedding theory  .... OFF
   NL short-range parameter             ....  6.900000
 RI-approximation to the Coulomb term is turned on
   Number of AuxJ basis functions       .... 191
   RIJ-COSX (HFX calculated with COS-X)).... on


General Settings:
 Integral files         IntName         .... ox_gs_E_orca0008
 Hartree-Fock type      HFTyp           .... RHF
 Total Charge           Charge          ....    0
 Multiplicity           Mult            ....    1
 Number of Electrons    NEL             ....   24
 Basis Dimension        Dim             ....  117
 Nuclear Repulsion      ENuc            ....     68.2372934651 Eh

Convergence Acceleration:
 DIIS                   CNVDIIS         .... on
   Start iteration      DIISMaxIt       ....    12
   Startup error        DIISStart       ....  0.200000
   # of expansion vecs  DIISMaxEq       ....     5
   Bias factor          DIISBfac        ....   1.050
   Max. coefficient     DIISMaxC        ....  10.000
 Trust-Rad. Augm. Hess. CNVTRAH         .... auto
   Auto Start mean grad. ratio tolernc. ....  1.125000
   Auto Start start iteration           ....    20
   Auto Start num. interpolation iter.  ....    10
   Max. Number of Micro iterations      ....    16
   Max. Number of Macro iterations      .... Maxiter - #DIIS iter
   Number of Davidson start vectors     ....     2
   Converg. threshold I  (grad. norm)   ....   1.000e-05
   Converg. threshold II (energy diff.) ....   1.000e-08
   Grad. Scal. Fac. for Micro threshold ....   0.100
   Minimum threshold for Micro iter.    ....   0.010
   NR start threshold (gradient norm)   ....   0.001
   Initial trust radius                 ....   0.400
   Minimum AH scaling param. (alpha)    ....   1.000
   Maximum AH scaling param. (alpha)    .... 1000.000
   Orbital update algorithm             .... Taylor
   White noise on init. David. guess    .... on
   Maximum white noise                  ....   0.010
   Quad. conv. algorithm                .... NR
 SOSCF                  CNVSOSCF        .... on
   Start iteration      SOSCFMaxIt      ....   150
   Startup grad/error   SOSCFStart      ....  0.003300
 Level Shifting         CNVShift        .... on
   Level shift para.    LevelShift      ....    0.2500
   Turn off err/grad.   ShiftErr        ....    0.0010
 Zerner damping         CNVZerner       .... off
 Static damping         CNVDamp         .... on
   Fraction old density DampFac         ....    0.7000
   Max. Damping (<1)    DampMax         ....    0.9800
   Min. Damping (>=0)   DampMin         ....    0.0000
   Turn off err/grad.   DampErr         ....    0.1000
 Fernandez-Rico         CNVRico         .... off

SCF Procedure:
 Maximum # iterations   MaxIter         ....   125
 SCF integral mode      SCFMode         .... Direct
   Integral package                     .... SHARK and LIBINT hybrid scheme
 Reset frequency        DirectResetFreq ....    20
 Integral Threshold     Thresh          ....  2.500e-11 Eh
 Primitive CutOff       TCut            ....  2.500e-12 Eh

Convergence Tolerance:
 Convergence Check Mode ConvCheckMode   .... Total+1el-Energy
 Convergence forced     ConvForced      .... 0
 Energy Change          TolE            ....  1.000e-08 Eh
 1-El. energy change                    ....  1.000e-05 Eh
 Orbital Gradient       TolG            ....  1.000e-05
 Orbital Rotation angle TolX            ....  1.000e-05
 DIIS Error             TolErr          ....  5.000e-07


Diagonalization of the overlap matrix:
Smallest eigenvalue                        ... 4.036e-04
Time for diagonalization                   ...    0.001 sec
Threshold for overlap eigenvalues          ... 1.000e-08
Number of eigenvalues below threshold      ... 0
Time for construction of square roots      ...    0.001 sec
Total time needed                          ...    0.003 sec

Time for model grid setup =    0.021 sec

------------------------------
INITIAL GUESS: MODEL POTENTIAL
------------------------------
Loading Hartree-Fock densities                     ... done
Calculating cut-offs                               ... done
Initializing the effective Hamiltonian             ... done
Setting up the integral package (SHARK)            ... done
Starting the Coulomb interaction                   ... done (   0.0 sec)
Reading the grid                                   ... done
Mapping shells                                     ... done
Starting the XC term evaluation                    ... done (   0.0 sec)
  promolecular density results
     # of electrons  =     23.998738506
     EX              =    -19.445384460
     EC              =     -0.764210792
     EX+EC           =    -20.209595252
Transforming the Hamiltonian                       ... done (   0.0 sec)
Diagonalizing the Hamiltonian                      ... done (   0.0 sec)
Back transforming the eigenvectors                 ... done (   0.0 sec)
Now organizing SCF variables                       ... done
                      ------------------
                      INITIAL GUESS DONE (   0.0 sec)
                      ------------------
-------------------
DFT GRID GENERATION
-------------------

General Integration Accuracy     IntAcc      ... 4.388
Radial Grid Type                 RadialGrid  ... OptM3 with GC (2021)
Angular Grid (max. ang.)         AngularGrid ... 4 (Lebedev-302)
Angular grid pruning method      GridPruning ... 4 (adaptive)
Weight generation scheme         WeightScheme... Becke
Basis function cutoff            BFCut       ... 1.0000e-11
Integration weight cutoff        WCut        ... 1.0000e-14
Angular grids for H and He will be reduced by one unit
Partially contracted basis set               ... off
Rotationally invariant grid construction     ... off

Total number of grid points                  ...    31323
Total number of batches                      ...      492
Average number of points per batch           ...       63
Average number of grid points per atom       ...     4475
Time for grid setup =    0.112 sec

--------------------
COSX GRID GENERATION
--------------------

GRIDX 1
-------
General Integration Accuracy     IntAcc      ... 3.816
Radial Grid Type                 RadialGrid  ... OptM3 with GC (2021)
Angular Grid (max. ang.)         AngularGrid ... 1 (Lebedev-50)
Angular grid pruning method      GridPruning ... 4 (adaptive)
Weight generation scheme         WeightScheme... Becke
Basis function cutoff            BFCut       ... 1.0000e-11
Integration weight cutoff        WCut        ... 1.0000e-14
Angular grids for H and He will be reduced by one unit
Partially contracted basis set               ... on
Rotationally invariant grid construction     ... off

Total number of grid points                  ...     4034
Total number of batches                      ...       66
Average number of points per batch           ...       61
Average number of grid points per atom       ...      576
UseSFitting                                  ... on

GRIDX 2
-------
General Integration Accuracy     IntAcc      ... 4.020
Radial Grid Type                 RadialGrid  ... OptM3 with GC (2021)
Angular Grid (max. ang.)         AngularGrid ... 2 (Lebedev-110)
Angular grid pruning method      GridPruning ... 4 (adaptive)
Weight generation scheme         WeightScheme... Becke
Basis function cutoff            BFCut       ... 1.0000e-11
Integration weight cutoff        WCut        ... 1.0000e-14
Angular grids for H and He will be reduced by one unit
Partially contracted basis set               ... on
Rotationally invariant grid construction     ... off

Total number of grid points                  ...     8731
Total number of batches                      ...      139
Average number of points per batch           ...       62
Average number of grid points per atom       ...     1247
UseSFitting                                  ... on

GRIDX 3
-------
General Integration Accuracy     IntAcc      ... 4.338
Radial Grid Type                 RadialGrid  ... OptM3 with GC (2021)
Angular Grid (max. ang.)         AngularGrid ... 3 (Lebedev-194)
Angular grid pruning method      GridPruning ... 4 (adaptive)
Weight generation scheme         WeightScheme... Becke
Basis function cutoff            BFCut       ... 1.0000e-11
Integration weight cutoff        WCut        ... 1.0000e-14
Angular grids for H and He will be reduced by one unit
Partially contracted basis set               ... on
Rotationally invariant grid construction     ... off

Total number of grid points                  ...    19268
Total number of batches                      ...      304
Average number of points per batch           ...       63
Average number of grid points per atom       ...     2753
UseSFitting                                  ... on

Time for X-Grid setup             =    0.073 sec

--------------
SCF ITERATIONS
--------------
ITER       Energy         Delta-E        Max-DP      RMS-DP      [F,P]     Damp
               ***  Starting incremental Fock matrix formation  ***
  0   -153.3786959292   0.000000000000 0.09121484  0.00241518  0.3290528 0.7000
  1   -153.4721255225  -0.093429593366 0.05378995  0.00133619  0.0849462 0.7000
                               ***Turning on DIIS***
  2   -153.4852849968  -0.013159474263 0.04810024  0.00175703  0.0644008 0.0000
  3   -153.5425993097  -0.057314312876 0.02334596  0.00101731  0.0375467 0.0000
  4   -153.5450016677  -0.002402358069 0.01043148  0.00034142  0.0500848 0.0000
  5   -153.5476316897  -0.002630021994 0.00372648  0.00011554  0.0134288 0.0000
  6   -153.5478416115  -0.000209921784 0.00159251  0.00004461  0.0050230 0.0000
                      *** Initiating the SOSCF procedure ***
                           *** Shutting down DIIS ***
                      *** Re-Reading the Fockian *** 
                      *** Removing any level shift *** 
ITER      Energy       Delta-E        Grad      Rot      Max-DP    RMS-DP
  7   -153.54786631  -0.0000247008  0.000373  0.000373  0.000946  0.000043
               *** Restarting incremental Fock matrix formation ***
  8   -153.54786382   0.0000024900  0.000424  0.002998  0.001410  0.000041
  9   -153.54785083   0.0000129912  0.001643  0.002314  0.001366  0.000031
 10   -153.54786643  -0.0000156031  0.000123  0.000913  0.000273  0.000012
 11   -153.54786669  -0.0000002512  0.000138  0.000683  0.000214  0.000008
 12   -153.54786704  -0.0000003527  0.000023  0.000467  0.000150  0.000005
 13   -153.54786707  -0.0000000335  0.000006  0.000092  0.000031  0.000001
 14   -153.54786707  -0.0000000013  0.000006  0.000014  0.000007  0.000000
                 **** Energy Check signals convergence ****
              ***Rediagonalizing the Fockian in SOSCF/NRSCF***

               *****************************************************
               *                     SUCCESS                       *
               *           SCF CONVERGED AFTER  15 CYCLES          *
               *****************************************************

Old exchange energy                            =     -4.950125118 Eh
New exchange energy                            =     -4.950133150 Eh
Exchange energy change after final integration =     -0.000008031 Eh
Total energy after final integration           =   -153.547875104 Eh
Final COS-X integration done in                =     0.313 sec

----------------
TOTAL SCF ENERGY
----------------

Total Energy       :         -153.54787510 Eh           -4178.25010 eV

Components:
Nuclear Repulsion  :           68.23729347 Eh            1856.83115 eV
Electronic Energy  :         -221.78516857 Eh           -6035.08125 eV
One Electron Energy:         -343.33143117 Eh           -9342.52321 eV
Two Electron Energy:          121.54626260 Eh            3307.44195 eV
Max COSX asymmetry :            0.00000109 Eh               0.00003 eV

Virial components:
Potential Energy   :         -306.23473839 Eh           -8333.07088 eV
Kinetic Energy     :          152.68686328 Eh            4154.82078 eV
Virial Ratio       :            2.00563907


DFT components:
N(Alpha)           :       11.999999892239 electrons
N(Beta)            :       11.999999892239 electrons
N(Total)           :       23.999999784478 electrons
E(X)               :      -14.864846625245 Eh       
E(C)               :       -0.770403899948 Eh       
E(XC)              :      -15.635250525193 Eh       
DFET-embed. en.    :        0.000000000000 Eh       

---------------
SCF CONVERGENCE
---------------

  Last Energy change         ...   -3.2014e-10  Tolerance :   1.0000e-08
  Last MAX-Density change    ...    5.5511e-16  Tolerance :   1.0000e-07
  Last RMS-Density change    ...    1.8619e-17  Tolerance :   5.0000e-09
  Last Orbital Gradient      ...    3.8855e-07  Tolerance :   1.0000e-05
  Last Orbital Rotation      ...    4.8014e-06  Tolerance :   1.0000e-05

             **** THE GBW FILE WAS UPDATED (ox_gs_E_orca0008.gbw) ****
             **** DENSITY ox_gs_E_orca0008.scfp WAS UPDATED ****
             **** ENERGY FILE WAS UPDATED (ox_gs_E_orca0008.en.tmp) ****
             **** THE GBW FILE WAS UPDATED (ox_gs_E_orca0008.gbw) ****
             **** DENSITY ox_gs_E_orca0008.scfp WAS UPDATED ****
----------------
ORBITAL ENERGIES
----------------

  NO   OCC          E(Eh)            E(eV) 
   0   2.0000     -19.201818      -522.5080 
   1   2.0000     -10.322581      -280.8917 
   2   2.0000     -10.273068      -279.5444 
   3   2.0000      -0.986122       -26.8337 
   4   2.0000      -0.775061       -21.0905 
   5   2.0000      -0.627546       -17.0764 
   6   2.0000      -0.517753       -14.0888 
   7   2.0000      -0.484166       -13.1748 
   8   2.0000      -0.416773       -11.3410 
   9   2.0000      -0.394611       -10.7379 
  10   2.0000      -0.279047        -7.5933 
  11   2.0000      -0.257104        -6.9962 
  12   0.0000      -0.137285        -3.7357 
  13   0.0000       0.049004         1.3335 
  14   0.0000       0.070301         1.9130 
  15   0.0000       0.088789         2.4161 
  16   0.0000       0.122405         3.3308 
  17   0.0000       0.148909         4.0520 
  18   0.0000       0.185062         5.0358 
  19   0.0000       0.201813         5.4916 
  20   0.0000       0.229262         6.2385 
  21   0.0000       0.253233         6.8908 
  22   0.0000       0.258536         7.0351 
  23   0.0000       0.330391         8.9904 
  24   0.0000       0.364283         9.9126 
  25   0.0000       0.385167        10.4809 
  26   0.0000       0.408795        11.1239 
  27   0.0000       0.417746        11.3674 
  28   0.0000       0.434758        11.8304 
  29   0.0000       0.485319        13.2062 
  30   0.0000       0.497651        13.5418 
  31   0.0000       0.546492        14.8708 
  32   0.0000       0.552537        15.0353 
  33   0.0000       0.598560        16.2876 
  34   0.0000       0.659071        17.9342 
  35   0.0000       0.726675        19.7738 
  36   0.0000       0.793075        21.5807 
  37   0.0000       0.862497        23.4697 
  38   0.0000       0.875175        23.8147 
  39   0.0000       0.921466        25.0744 
  40   0.0000       0.931880        25.3577 
  41   0.0000       1.041155        28.3313 
  42   0.0000       1.070169        29.1208 
  43   0.0000       1.081619        29.4324 
  44   0.0000       1.183571        32.2066 
  45   0.0000       1.322620        35.9903 
  46   0.0000       1.396928        38.0123 
  47   0.0000       1.449257        39.4363 
  48   0.0000       1.522982        41.4425 
  49   0.0000       1.540517        41.9196 
  50   0.0000       1.572581        42.7921 
  51   0.0000       1.590450        43.2784 
  52   0.0000       1.630128        44.3580 
  53   0.0000       1.680751        45.7356 
  54   0.0000       1.730048        47.0770 
  55   0.0000       1.763469        47.9864 
  56   0.0000       1.798440        48.9380 
  57   0.0000       1.810011        49.2529 
  58   0.0000       1.860621        50.6301 
  59   0.0000       1.893065        51.5129 
  60   0.0000       1.995671        54.3050 
  61   0.0000       2.068264        56.2803 
  62   0.0000       2.136391        58.1341 
  63   0.0000       2.194373        59.7119 
  64   0.0000       2.325608        63.2830 
  65   0.0000       2.351751        63.9944 
  66   0.0000       2.382474        64.8304 
  67   0.0000       2.446489        66.5723 
  68   0.0000       2.467267        67.1378 
  69   0.0000       2.518179        68.5231 
  70   0.0000       2.550069        69.3909 
  71   0.0000       2.599144        70.7263 
  72   0.0000       2.634297        71.6829 
  73   0.0000       2.647889        72.0527 
  74   0.0000       2.743872        74.6645 
  75   0.0000       2.804958        76.3268 
  76   0.0000       2.855365        77.6984 
  77   0.0000       2.940389        80.0120 
  78   0.0000       2.968090        80.7658 
  79   0.0000       2.980325        81.0988 
  80   0.0000       3.057692        83.2040 
  81   0.0000       3.083886        83.9168 
  82   0.0000       3.097903        84.2982 
  83   0.0000       3.145862        85.6033 
  84   0.0000       3.152464        85.7829 
  85   0.0000       3.203341        87.1673 
  86   0.0000       3.347485        91.0897 
  87   0.0000       3.364295        91.5471 
  88   0.0000       3.436372        93.5084 
  89   0.0000       3.474944        94.5580 
  90   0.0000       3.525090        95.9226 
  91   0.0000       3.669406        99.8496 
  92   0.0000       3.717238       101.1512 
  93   0.0000       3.844336       104.6097 
  94   0.0000       4.006896       109.0332 
  95   0.0000       4.101305       111.6022 
  96   0.0000       4.124959       112.2458 
  97   0.0000       4.267835       116.1337 
  98   0.0000       4.380604       119.2023 
  99   0.0000       4.501697       122.4974 
 100   0.0000       4.570477       124.3690 
 101   0.0000       4.723904       128.5440 
 102   0.0000       5.203087       141.5832 
 103   0.0000       5.249757       142.8532 
 104   0.0000       5.358174       145.8033 
 105   0.0000       5.374705       146.2532 
 106   0.0000       5.710196       155.3823 
 107   0.0000       5.738090       156.1414 
 108   0.0000       5.895408       160.4222 
 109   0.0000       6.372620       173.4078 
 110   0.0000       6.399914       174.1505 
 111   0.0000       6.771551       184.2633 
 112   0.0000       6.779006       184.4661 
 113   0.0000       6.968668       189.6271 
 114   0.0000      22.024222       599.3095 
 115   0.0000      22.446037       610.7877 
 116   0.0000      43.730767      1189.9747 

                    ********************************
                    * MULLIKEN POPULATION ANALYSIS *
                    ********************************

-----------------------
MULLIKEN ATOMIC CHARGES
-----------------------
   0 O :   -0.384647
   1 C :   -0.042157
   2 C :   -0.125203
   3 H :    0.110965
   4 H :    0.115221
   5 H :    0.161346
   6 H :    0.164475
Sum of atomic charges:    0.0000000

--------------------------------
MULLIKEN REDUCED ORBITAL CHARGES
--------------------------------
  0 O s       :     3.917073  s :     3.917073
      pz      :     1.919958  p :     4.444924
      px      :     1.246209
      py      :     1.278758
      dz2     :     0.003051  d :     0.021524
      dxz     :     0.000171
      dyz     :     0.004692
      dx2y2   :     0.008198
      dxy     :     0.005413
      f0      :     0.000128  f :     0.001125
      f+1     :     0.000055
      f-1     :     0.000279
      f+2     :     0.000135
      f-2     :     0.000021
      f+3     :     0.000226
      f-3     :     0.000281
  1 C s       :     3.191376  s :     3.191376
      pz      :     1.052055  p :     2.689233
      px      :     0.902310
      py      :     0.734868
      dz2     :     0.012012  d :     0.152350
      dxz     :     0.017877
      dyz     :     0.045604
      dx2y2   :     0.021167
      dxy     :     0.055689
      f0      :     0.001688  f :     0.009198
      f+1     :     0.001118
      f-1     :     0.000762
      f+2     :     0.002651
      f-2     :     0.000178
      f+3     :     0.002067
      f-3     :     0.000734
  2 C s       :     3.297882  s :     3.297882
      pz      :     1.049285  p :     2.770425
      px      :     1.014644
      py      :     0.706496
      dz2     :     0.004930  d :     0.052265
      dxz     :     0.024480
      dyz     :     0.004562
      dx2y2   :     0.005420
      dxy     :     0.012872
      f0      :     0.000462  f :     0.004632
      f+1     :     0.001011
      f-1     :     0.000136
      f+2     :     0.000767
      f-2     :     0.000236
      f+3     :     0.000777
      f-3     :     0.001241
  3 H s       :     0.870709  s :     0.870709
      pz      :     0.009570  p :     0.018326
      px      :     0.005048
      py      :     0.003709
  4 H s       :     0.861841  s :     0.861841
      pz      :     0.010858  p :     0.022938
      px      :     0.006772
      py      :     0.005308
  5 H s       :     0.817412  s :     0.817412
      pz      :     0.010415  p :     0.021242
      px      :     0.006979
      py      :     0.003848
  6 H s       :     0.813049  s :     0.813049
      pz      :     0.011397  p :     0.022476
      px      :     0.006669
      py      :     0.004410


                     *******************************
                     * LOEWDIN POPULATION ANALYSIS *
                     *******************************

----------------------
LOEWDIN ATOMIC CHARGES
----------------------
   0 O :   -0.081907
   1 C :   -0.425343
   2 C :   -0.012456
   3 H :    0.140756
   4 H :    0.101756
   5 H :    0.143111
   6 H :    0.134083

-------------------------------
LOEWDIN REDUCED ORBITAL CHARGES
-------------------------------
  0 O s       :     3.592366  s :     3.592366
      pz      :     1.853292  p :     4.438087
      px      :     1.198080
      py      :     1.386714
      dz2     :     0.006363  d :     0.048357
      dxz     :     0.000137
      dyz     :     0.012436
      dx2y2   :     0.017059
      dxy     :     0.012362
      f0      :     0.000311  f :     0.003098
      f+1     :     0.000083
      f-1     :     0.000524
      f+2     :     0.000585
      f-2     :     0.000019
      f+3     :     0.000864
      f-3     :     0.000713
  1 C s       :     2.827512  s :     2.827512
      pz      :     1.048314  p :     2.946011
      px      :     1.055466
      py      :     0.842231
      dz2     :     0.069730  d :     0.586126
      dxz     :     0.100355
      dyz     :     0.120202
      dx2y2   :     0.125696
      dxy     :     0.170144
      f0      :     0.010261  f :     0.065694
      f+1     :     0.006078
      f-1     :     0.006888
      f+2     :     0.014547
      f-2     :     0.002336
      f+3     :     0.015076
      f-3     :     0.010509
  2 C s       :     2.913794  s :     2.913794
      pz      :     1.070120  p :     2.839589
      px      :     1.126450
      py      :     0.643019
      dz2     :     0.028587  d :     0.234353
      dxz     :     0.115727
      dyz     :     0.011466
      dx2y2   :     0.037754
      dxy     :     0.040820
      f0      :     0.003428  f :     0.024720
      f+1     :     0.003385
      f-1     :     0.001092
      f+2     :     0.004525
      f-2     :     0.001595
      f+3     :     0.004449
      f-3     :     0.006247
  3 H s       :     0.811818  s :     0.811818
      pz      :     0.025991  p :     0.047426
      px      :     0.012351
      py      :     0.009083
  4 H s       :     0.827208  s :     0.827208
      pz      :     0.034889  p :     0.071036
      px      :     0.020090
      py      :     0.016057
  5 H s       :     0.797286  s :     0.797286
      pz      :     0.030889  p :     0.059603
      px      :     0.018374
      py      :     0.010341
  6 H s       :     0.801099  s :     0.801099
      pz      :     0.034501  p :     0.064818
      px      :     0.018126
      py      :     0.012190


                      *****************************
                      * MAYER POPULATION ANALYSIS *
                      *****************************

  NA   - Mulliken gross atomic population
  ZA   - Total nuclear charge
  QA   - Mulliken gross atomic charge
  VA   - Mayer's total valence
  BVA  - Mayer's bonded valence
  FA   - Mayer's free valence

  ATOM       NA         ZA         QA         VA         BVA        FA
  0 O      8.3846     8.0000    -0.3846     1.8043     1.8043    -0.0000
  1 C      6.0422     6.0000    -0.0422     4.0444     4.0444     0.0000
  2 C      6.1252     6.0000    -0.1252     3.7979     3.7979    -0.0000
  3 H      0.8890     1.0000     0.1110     0.9696     0.9696     0.0000
  4 H      0.8848     1.0000     0.1152     0.9573     0.9573     0.0000
  5 H      0.8387     1.0000     0.1613     0.9588     0.9588    -0.0000
  6 H      0.8355     1.0000     0.1645     0.9562     0.9562     0.0000

  Mayer bond orders larger than 0.100000
B(  0-O ,  1-C ) :   0.9938 B(  0-O ,  2-C ) :   0.8122 B(  1-C ,  2-C ) :   1.1047 
B(  1-C ,  3-H ) :   0.9687 B(  1-C ,  4-H ) :   0.9650 B(  2-C ,  5-H ) :   0.9409 
B(  2-C ,  6-H ) :   0.9405 

-------
TIMINGS
-------

Total SCF time: 0 days 0 hours 0 min 3 sec 

Total time                  ....       3.594 sec
Sum of individual times     ....       3.249 sec  ( 90.4%)

Fock matrix formation       ....       2.968 sec  ( 82.6%)
  Split-RI-J                ....       0.308 sec  ( 10.4% of F)
  Chain of spheres X        ....       2.038 sec  ( 68.7% of F)
  XC integration            ....       0.547 sec  ( 18.4% of F)
    Basis function eval.    ....       0.155 sec  ( 28.2% of XC)
    Density eval.           ....       0.112 sec  ( 20.4% of XC)
    XC-Functional eval.     ....       0.033 sec  (  5.9% of XC)
    XC-Potential eval.      ....       0.184 sec  ( 33.6% of XC)
Diagonalization             ....       0.018 sec  (  0.5%)
Density matrix formation    ....       0.002 sec  (  0.1%)
Population analysis         ....       0.005 sec  (  0.1%)
Initial guess               ....       0.017 sec  (  0.5%)
Orbital Transformation      ....       0.000 sec  (  0.0%)
Orbital Orthonormalization  ....       0.000 sec  (  0.0%)
DIIS solution               ....       0.015 sec  (  0.4%)
SOSCF solution              ....       0.020 sec  (  0.5%)
Grid generation             ....       0.206 sec  (  5.7%)

Maximum memory used throughout the entire SCF-calculation: 61.0 MB


-------------------------------------------------------------------------------
                          DFT DISPERSION CORRECTION                            
                                                                               
                              DFTD3 V3.1  Rev 1                                
                          USING Becke-Johnson damping                          
-------------------------------------------------------------------------------
The PBE0 functional is recognized
Active option DFTDOPT                   ...         4   

molecular C6(AA) [au] = 394.691703 


            DFT-D V3
 parameters
 s6 scaling factor         :     1.0000 
 a1 scaling factor         :     0.4145 
 s8 scaling factor         :     1.2177 
 a2 scaling factor         :     4.8593 
 ad hoc parameters k1-k3   :    16.0000     1.3333    -4.0000 

 Edisp/kcal,au: -1.648908117545  -0.002627702066 
 E6   /kcal   :  -1.075944869 
 E8   /kcal   :  -0.572963248 
 % E8         :  34.748039754 

-------------------------   ----------------
Dispersion correction           -0.002627702
-------------------------   ----------------


-------------------------   --------------------
FINAL SINGLE POINT ENERGY      -153.550502806543
-------------------------   --------------------



           ************************************************************
           *        Program running with 8 parallel MPI-processes     *
           *              working on a common directory               *
           ************************************************************
------------------------------------------------------------------------------
                         ORCA SCF GRADIENT CALCULATION
------------------------------------------------------------------------------

 ... reading COSX grid (gridx3)
Gradient of the Kohn-Sham DFT energy:
Kohn-Sham wavefunction type      ... RKS
Hartree-Fock exchange scaling    ...    0.250
Number of operators              ...    1
Number of atoms                  ...    7
Basis set dimensions             ...  117
Integral neglect threshold       ... 2.5e-11
Integral primitive cutoff        ... 2.5e-12
SHARK Integral package           ... ON

Nuc. rep. gradient       (SHARK) ... done (  0.0 sec)
HCore & Overlap gradient (SHARK) ... done (  0.0 sec)
RI-J gradient            (SHARK) ... done (  0.1 sec)
COSX-gradient                    ... done (  0.4 sec)
Exchange-correlation gradient    ... done
Dispersion correction            ... done

------------------
CARTESIAN GRADIENT
------------------

   1   O   :   -0.073212565    0.018639521    0.008708688
   2   C   :    0.045357253   -0.036997413   -0.090280399
   3   C   :    0.012312666    0.007038281    0.017784557
   4   H   :   -0.023921118    0.023426273    0.040613917
   5   H   :    0.019985764    0.033100261    0.039389023
   6   H   :    0.014794350   -0.024498225   -0.016046225
   7   H   :    0.004704538   -0.020758609   -0.000081977

Difference to translation invariance:
           :    0.0000208887   -0.0000499114    0.0000875832

Difference to rotation invariance:
           :    0.0000792356    0.0000524998    0.0002507418

Norm of the cartesian gradient     ...    0.1588208160
RMS gradient                       ...    0.0346575434
MAX gradient                       ...    0.0902803994

-------
TIMINGS
-------

Total SCF gradient time            ...        0.770 sec

One electron gradient       ....       0.010 sec  (  1.3%)
RI-J Coulomb gradient       ....       0.082 sec  ( 10.6%)
COSX gradient               ....       0.355 sec  ( 46.1%)
XC gradient                 ....       0.176 sec  ( 22.9%)

Maximum memory used throughout the entire SCFGRAD-calculation: 35.9 MB

                            ***************************************
                            *     ORCA property calculations      *
                            ***************************************

                                    ---------------------
                                    Active property flags
                                    ---------------------
   (+) Dipole Moment


------------------------------------------------------------------------------
                       ORCA ELECTRIC PROPERTIES CALCULATION
------------------------------------------------------------------------------

Dipole Moment Calculation                       ... on
Quadrupole Moment Calculation                   ... off
Polarizability Calculation                      ... off
GBWName                                         ... ox_gs_E_orca0008.gbw
Electron density                                ... ox_gs_E_orca0008.scfp
The origin for moment calculation is the CENTER OF MASS  = (-0.583815,  0.156542 -0.035148)

-------------
DIPOLE MOMENT
-------------
                                X             Y             Z
Electronic contribution:     -0.54808       1.55094      -0.17388
Nuclear contribution   :      1.26116      -2.81501       0.15422
                        -----------------------------------------
Total Dipole Moment    :      0.71308      -1.26407      -0.01966
                        -----------------------------------------
Magnitude (a.u.)       :      1.45146
Magnitude (Debye)      :      3.68932



--------------------
Rotational spectrum 
--------------------
 
Rotational constants in cm-1:     1.164647     0.399288     0.339538 
Rotational constants in MHz : 34915.233381 11970.345017 10179.102588 

 Dipole components along the rotational axes: 
x,y,z [a.u.] :    -1.366158    -0.489590    -0.025580 
x,y,z [Debye]:    -3.472497    -1.244439    -0.065020 

 

Timings for individual modules:

Sum of individual times         ...        5.007 sec (=   0.083 min)
GTO integral calculation        ...        0.296 sec (=   0.005 min)   5.9 %
SCF iterations                  ...        3.754 sec (=   0.063 min)  75.0 %
SCF Gradient evaluation         ...        0.957 sec (=   0.016 min)  19.1 %
                             ****ORCA TERMINATED NORMALLY****
TOTAL RUN TIME: 0 days 0 hours 0 minutes 5 seconds 330 msec
