
                                 *****************
                                 * O   R   C   A *
                                 *****************

                                            #,                                       
                                            ###                                      
                                            ####                                     
                                            #####                                    
                                            ######                                   
                                           ########,                                 
                                     ,,################,,,,,                         
                               ,,#################################,,                 
                          ,,##########################################,,             
                       ,#########################################, ''#####,          
                    ,#############################################,,   '####,        
                  ,##################################################,,,,####,       
                ,###########''''           ''''###############################       
              ,#####''   ,,,,##########,,,,          '''####'''          '####       
            ,##' ,,,,###########################,,,                        '##       
           ' ,,###''''                  '''############,,,                           
         ,,##''                                '''############,,,,        ,,,,,,###''
      ,#''                                            '''#######################'''  
     '                                                          ''''####''''         
             ,#######,   #######,   ,#######,      ##                                
            ,#'     '#,  ##    ##  ,#'     '#,    #''#        ######   ,####,        
            ##       ##  ##   ,#'  ##            #'  '#       #        #'  '#        
            ##       ##  #######   ##           ,######,      #####,   #    #        
            '#,     ,#'  ##    ##  '#,     ,#' ,#      #,         ##   #,  ,#        
             '#######'   ##     ##  '#######'  #'      '#     #####' # '####'        



                  #######################################################
                  #                        -***-                        #
                  #          Department of theory and spectroscopy      #
                  #    Directorship and core code : Frank Neese         #
                  #        Max Planck Institute fuer Kohlenforschung    #
                  #                Kaiser Wilhelm Platz 1               #
                  #                 D-45470 Muelheim/Ruhr               #
                  #                      Germany                        #
                  #                                                     #
                  #                  All rights reserved                #
                  #                        -***-                        #
                  #######################################################


                         Program Version 5.0.2 -  RELEASE  -


 With contributions from (in alphabetic order):
   Daniel Aravena         : Magnetic Suceptibility
   Michael Atanasov       : Ab Initio Ligand Field Theory (pilot matlab implementation)
   Alexander A. Auer      : GIAO ZORA, VPT2 properties, NMR spectrum
   Ute Becker             : Parallelization
   Giovanni Bistoni       : ED, misc. LED, open-shell LED, HFLD
   Martin Brehm           : Molecular dynamics
   Dmytro Bykov           : SCF Hessian
   Vijay G. Chilkuri      : MRCI spin determinant printing, contributions to CSF-ICE
   Dipayan Datta          : RHF DLPNO-CCSD density
   Achintya Kumar Dutta   : EOM-CC, STEOM-CC
   Dmitry Ganyushin       : Spin-Orbit,Spin-Spin,Magnetic field MRCI
   Miquel Garcia          : C-PCM and meta-GGA Hessian, CC/C-PCM, Gaussian charge scheme
   Yang Guo               : DLPNO-NEVPT2, F12-NEVPT2, CIM, IAO-localization
   Andreas Hansen         : Spin unrestricted coupled pair/coupled cluster methods
   Benjamin Helmich-Paris : MC-RPA, TRAH-SCF, COSX integrals
   Lee Huntington         : MR-EOM, pCC
   Robert Izsak           : Overlap fitted RIJCOSX, COSX-SCS-MP3, EOM
   Marcus Kettner         : VPT2
   Christian Kollmar      : KDIIS, OOCD, Brueckner-CCSD(T), CCSD density, CASPT2, CASPT2-K
   Simone Kossmann        : Meta GGA functionals, TD-DFT gradient, OOMP2, MP2 Hessian
   Martin Krupicka        : Initial AUTO-CI
   Lucas Lang             : DCDCAS
   Marvin Lechner         : AUTO-CI (C++ implementation), FIC-MRCC
   Dagmar Lenk            : GEPOL surface, SMD
   Dimitrios Liakos       : Extrapolation schemes; Compound Job, initial MDCI parallelization
   Dimitrios Manganas     : Further ROCIS development; embedding schemes
   Dimitrios Pantazis     : SARC Basis sets
   Anastasios Papadopoulos: AUTO-CI, single reference methods and gradients
   Taras Petrenko         : DFT Hessian,TD-DFT gradient, ASA, ECA, R-Raman, ABS, FL, XAS/XES, NRVS
   Peter Pinski           : DLPNO-MP2, DLPNO-MP2 Gradient
   Christoph Reimann      : Effective Core Potentials
   Marius Retegan         : Local ZFS, SOC
   Christoph Riplinger    : Optimizer, TS searches, QM/MM, DLPNO-CCSD(T), (RO)-DLPNO pert. Triples
   Tobias Risthaus        : Range-separated hybrids, TD-DFT gradient, RPA, STAB
   Michael Roemelt        : Original ROCIS implementation
   Masaaki Saitow         : Open-shell DLPNO-CCSD energy and density
   Barbara Sandhoefer     : DKH picture change effects
   Avijit Sen             : IP-ROCIS
   Kantharuban Sivalingam : CASSCF convergence, NEVPT2, FIC-MRCI
   Bernardo de Souza      : ESD, SOC TD-DFT
   Georgi Stoychev        : AutoAux, RI-MP2 NMR, DLPNO-MP2 response
   Willem Van den Heuvel  : Paramagnetic NMR
   Boris Wezisla          : Elementary symmetry handling
   Frank Wennmohs         : Technical directorship


 We gratefully acknowledge several colleagues who have allowed us to
 interface, adapt or use parts of their codes:
   Stefan Grimme, W. Hujo, H. Kruse, P. Pracht,  : VdW corrections, initial TS optimization,
                  C. Bannwarth, S. Ehlert          DFT functionals, gCP, sTDA/sTD-DF
   Ed Valeev, F. Pavosevic, A. Kumar             : LibInt (2-el integral package), F12 methods
   Garnet Chan, S. Sharma, J. Yang, R. Olivares  : DMRG
   Ulf Ekstrom                                   : XCFun DFT Library
   Mihaly Kallay                                 : mrcc  (arbitrary order and MRCC methods)
   Jiri Pittner, Ondrej Demel                    : Mk-CCSD
   Frank Weinhold                                : gennbo (NPA and NBO analysis)
   Christopher J. Cramer and Donald G. Truhlar   : smd solvation model
   Lars Goerigk                                  : TD-DFT with DH, B97 family of functionals
   V. Asgeirsson, H. Jonsson                     : NEB implementation
   FAccTs GmbH                                   : IRC, NEB, NEB-TS, DLPNO-Multilevel, CI-OPT
                                                   MM, QMMM, 2- and 3-layer-ONIOM, Crystal-QMMM,
                                                   LR-CPCM, SF, NACMEs, symmetry and pop. for TD-DFT,
                                                   nearIR, NL-DFT gradient (VV10), updates on ESD,
                                                   ML-optimized integration grids
   S Lehtola, MJT Oliveira, MAL Marques          : LibXC Library
   Liviu Ungur et al                             : ANISO software


 Your calculation uses the libint2 library for the computation of 2-el integrals
 For citations please refer to: http://libint.valeyev.net

 Your ORCA version has been built with support for libXC version: 5.1.0
 For citations please refer to: https://tddft.org/programs/libxc/

 This ORCA versions uses:
   CBLAS   interface :  Fast vector & matrix operations
   LAPACKE interface :  Fast linear algebra routines
   SCALAPACK package :  Parallel linear algebra routines
   Shared memory     :  Shared parallel matrices
   BLAS/LAPACK       :  OpenBLAS 0.3.15  USE64BITINT DYNAMIC_ARCH NO_AFFINITY SkylakeX SINGLE_THREADED
        Core in use  :  SkylakeX
   Copyright (c) 2011-2014, The OpenBLAS Project


Your calculation utilizes the atom-pairwise dispersion correction
with the Becke-Johnson damping scheme (D3BJ)
Cite in your paper:
S.Grimme, S.Ehrlich, L.Goerigk, J Comput Chem, (2011), 32, 1456–1465 
S.Grimme, J.Antony, S.Ehrlich and H.Krieg, J.Chem.Phys., 132, (2010), 154104 
   

================================================================================

----- Orbital basis set information -----
Your calculation utilizes the basis: def2-TZVP
   F. Weigend and R. Ahlrichs, Phys. Chem. Chem. Phys. 7, 3297 (2005).

----- AuxJ basis set information -----
Your calculation utilizes the auxiliary basis: def2/J
   F. Weigend, Phys. Chem. Chem. Phys. 8, 1057 (2006).

================================================================================
                                        WARNINGS
                       Please study these warnings very carefully!
================================================================================


INFO   : the flag for use of the SHARK integral package has been found!

================================================================================
                                       INPUT FILE
================================================================================
NAME = ox_gs_G_orca0006.inp
|  1> ! engrad PBE0 D3BJ def2-TZVP  
|  2> %pal nprocs 8 end
|  3> %maxcore 3000
|  4>  
|  5> *xyz 0 1 
|  6> O   -1.4042925196048548 0.7662251872637404 0.016605332579205198
|  7> C   -0.7436720825382942 -0.5304616750102223 0.06448388292112614
|  8> C   0.783741044631282 -0.38289970665186907 -0.016206497151837983
|  9> H   -1.233275293495008 -0.6198156408044575 0.9254925889144539
| 10> H   -1.250517036387727 -0.6119763574178997 -0.9611030321424978
| 11> H   1.2042446205536064 -0.6150657376366313 -0.9498254041996503
| 12> H   1.197228687059767 -0.6870085946305186 0.8339965150776264
| 13> *
| 14> 
| 15>                          ****END OF INPUT****
================================================================================

                     *******************************
                     * Energy+Gradient Calculation *
                     *******************************

---------------------------------
CARTESIAN COORDINATES (ANGSTROEM)
---------------------------------
  O     -1.404293    0.766225    0.016605
  C     -0.743672   -0.530462    0.064484
  C      0.783741   -0.382900   -0.016206
  H     -1.233275   -0.619816    0.925493
  H     -1.250517   -0.611976   -0.961103
  H      1.204245   -0.615066   -0.949825
  H      1.197229   -0.687009    0.833997

----------------------------
CARTESIAN COORDINATES (A.U.)
----------------------------
  NO LB      ZA    FRAG     MASS         X           Y           Z
   0 O     8.0000    0    15.999   -2.653728    1.447956    0.031380
   1 C     6.0000    0    12.011   -1.405337   -1.002427    0.121857
   2 C     6.0000    0    12.011    1.481056   -0.723576   -0.030626
   3 H     1.0000    0     1.008   -2.330553   -1.171282    1.748928
   4 H     1.0000    0     1.008   -2.363135   -1.156468   -1.816222
   5 H     1.0000    0     1.008    2.275693   -1.162306   -1.794910
   6 H     1.0000    0     1.008    2.262434   -1.298258    1.576025

--------------------------------
INTERNAL COORDINATES (ANGSTROEM)
--------------------------------
 O      0   0   0     0.000000000000     0.00000000     0.00000000
 C      1   0   0     1.456059248879     0.00000000     0.00000000
 C      2   1   0     1.536644504429   111.32970108     0.00000000
 H      2   1   3     0.994500591844    83.40322717   122.82911924
 H      2   1   3     1.146893618014    80.40897455   248.37162862
 H      3   2   1     1.049937420470   115.05933043   256.61563856
 H      3   2   1     0.993126078699   109.84575950   114.70979511

---------------------------
INTERNAL COORDINATES (A.U.)
---------------------------
 O      0   0   0     0.000000000000     0.00000000     0.00000000
 C      1   0   0     2.751553215145     0.00000000     0.00000000
 C      2   1   0     2.903837278566   111.32970108     0.00000000
 H      2   1   3     1.879333758608    83.40322717   122.82911924
 H      2   1   3     2.167314842788    80.40897455   248.37162862
 H      3   2   1     1.984094182445   115.05933043   256.61563856
 H      3   2   1     1.876736305197   109.84575950   114.70979511

---------------------
BASIS SET INFORMATION
---------------------
There are 3 groups of distinct atoms

 Group   1 Type O   : 11s6p2d1f contracted to 5s3p2d1f pattern {62111/411/11/1}
 Group   2 Type C   : 11s6p2d1f contracted to 5s3p2d1f pattern {62111/411/11/1}
 Group   3 Type H   : 5s1p contracted to 3s1p pattern {311/1}

Atom   0O    basis set group =>   1
Atom   1C    basis set group =>   2
Atom   2C    basis set group =>   2
Atom   3H    basis set group =>   3
Atom   4H    basis set group =>   3
Atom   5H    basis set group =>   3
Atom   6H    basis set group =>   3
---------------------------------
AUXILIARY/J BASIS SET INFORMATION
---------------------------------
There are 3 groups of distinct atoms

 Group   1 Type O   : 12s5p4d2f1g contracted to 6s4p3d1f1g pattern {711111/2111/211/2/1}
 Group   2 Type C   : 12s5p4d2f1g contracted to 6s4p3d1f1g pattern {711111/2111/211/2/1}
 Group   3 Type H   : 5s2p1d contracted to 3s1p1d pattern {311/2/1}

Atom   0O    basis set group =>   1
Atom   1C    basis set group =>   2
Atom   2C    basis set group =>   2
Atom   3H    basis set group =>   3
Atom   4H    basis set group =>   3
Atom   5H    basis set group =>   3
Atom   6H    basis set group =>   3


           ************************************************************
           *        Program running with 8 parallel MPI-processes     *
           *              working on a common directory               *
           ************************************************************
------------------------------------------------------------------------------
                           ORCA GTO INTEGRAL CALCULATION
                           -- RI-GTO INTEGRALS CHOSEN --
------------------------------------------------------------------------------
------------------------------------------------------------------------------
                   ___                                                        
                  /   \      - P O W E R E D   B Y -                         
                 /     \                                                     
                 |  |  |   _    _      __       _____    __    __             
                 |  |  |  | |  | |    /  \     |  _  \  |  |  /  |          
                  \  \/   | |  | |   /    \    | | | |  |  | /  /          
                 / \  \   | |__| |  /  /\  \   | |_| |  |  |/  /          
                |  |  |   |  __  | /  /__\  \  |    /   |      \           
                |  |  |   | |  | | |   __   |  |    \   |  |\   \          
                \     /   | |  | | |  |  |  |  | |\  \  |  | \   \       
                 \___/    |_|  |_| |__|  |__|  |_| \__\ |__|  \__/        
                                                                              
                      - O R C A' S   B I G   F R I E N D -                    
                                      &                                       
                       - I N T E G R A L  F E E D E R -                       
                                                                              
 v1 FN, 2020, v2 2021                                                         
------------------------------------------------------------------------------


Reading SHARK input file ox_gs_G_orca0006.SHARKINP.tmp ... ok
----------------------
SHARK INTEGRAL PACKAGE
----------------------

Number of atoms                             ...      7
Number of basis functions                   ...    117
Number of shells                            ...     49
Maximum angular momentum                    ...      3
Integral batch strategy                     ... SHARK/LIBINT Hybrid
RI-J (if used) integral strategy            ... SPLIT-RIJ (Revised 2003 algorithm where possible)
Printlevel                                  ...      1
Contraction scheme used                     ... SEGMENTED contraction
Coulomb Range Separation                    ... NOT USED
Exchange Range Separation                   ... NOT USED
Finite Nucleus Model                        ... NOT USED
Auxiliary Coulomb fitting basis             ... AVAILABLE
   # of basis functions in Aux-J            ...    191
   # of shells in Aux-J                     ...     65
   Maximum angular momentum in Aux-J        ...      4
Auxiliary J/K fitting basis                 ... NOT available
Auxiliary Correlation fitting basis         ... NOT available
Auxiliary 'external' fitting basis          ... NOT available
Integral threshold                          ...     2.500000e-11
Primitive cut-off                           ...     2.500000e-12
Primitive pair pre-selection threshold      ...     2.500000e-12

Calculating pre-screening integrals         ... done (  0.0 sec) Dimension = 49
Organizing shell pair data                  ... done (  0.0 sec)
Shell pair information
Total number of shell pairs                 ...      1225
Shell pairs after pre-screening             ...      1212
Total number of primitive shell pairs       ...      3648
Primitive shell pairs kept                  ...      3072
          la=0 lb=0:    367 shell pairs
          la=1 lb=0:    350 shell pairs
          la=1 lb=1:     91 shell pairs
          la=2 lb=0:    161 shell pairs
          la=2 lb=1:     78 shell pairs
          la=2 lb=2:     21 shell pairs
          la=3 lb=0:     81 shell pairs
          la=3 lb=1:     39 shell pairs
          la=3 lb=2:     18 shell pairs
          la=3 lb=3:      6 shell pairs

Calculating one electron integrals          ... done (  0.0 sec)
Calculating RI/J V-Matrix + Cholesky decomp.... done (  0.0 sec)
Calculating Nuclear repulsion               ... done (  0.0 sec) ENN=     67.213633550847 Eh

SHARK setup successfully completed in   0.1 seconds

Maximum memory used throughout the entire GTOINT-calculation: 14.9 MB


           ************************************************************
           *        Program running with 8 parallel MPI-processes     *
           *              working on a common directory               *
           ************************************************************
-------------------------------------------------------------------------------
                                 ORCA SCF
-------------------------------------------------------------------------------

------------
SCF SETTINGS
------------
Hamiltonian:
 Density Functional     Method          .... DFT(GTOs)
 Exchange Functional    Exchange        .... PBE
   PBE kappa parameter   XKappa         ....  0.804000
   PBE mue parameter    XMuePBE         ....  0.219520
 Correlation Functional Correlation     .... PBE
   PBE beta parameter  CBetaPBE         ....  0.066725
 LDA part of GGA corr.  LDAOpt          .... PW91-LDA
 Gradients option       PostSCFGGA      .... off
 Hybrid DFT is turned on
   Fraction HF Exchange ScalHFX         ....  0.250000
   Scaling of DF-GGA-X  ScalDFX         ....  0.750000
   Scaling of DF-GGA-C  ScalDFC         ....  1.000000
   Scaling of DF-LDA-C  ScalLDAC        ....  1.000000
   Perturbative correction              ....  0.000000
   Density functional embedding theory  .... OFF
   NL short-range parameter             ....  6.900000
 RI-approximation to the Coulomb term is turned on
   Number of AuxJ basis functions       .... 191
   RIJ-COSX (HFX calculated with COS-X)).... on


General Settings:
 Integral files         IntName         .... ox_gs_G_orca0006
 Hartree-Fock type      HFTyp           .... RHF
 Total Charge           Charge          ....    0
 Multiplicity           Mult            ....    1
 Number of Electrons    NEL             ....   24
 Basis Dimension        Dim             ....  117
 Nuclear Repulsion      ENuc            ....     67.2136335508 Eh

Convergence Acceleration:
 DIIS                   CNVDIIS         .... on
   Start iteration      DIISMaxIt       ....    12
   Startup error        DIISStart       ....  0.200000
   # of expansion vecs  DIISMaxEq       ....     5
   Bias factor          DIISBfac        ....   1.050
   Max. coefficient     DIISMaxC        ....  10.000
 Trust-Rad. Augm. Hess. CNVTRAH         .... auto
   Auto Start mean grad. ratio tolernc. ....  1.125000
   Auto Start start iteration           ....    20
   Auto Start num. interpolation iter.  ....    10
   Max. Number of Micro iterations      ....    16
   Max. Number of Macro iterations      .... Maxiter - #DIIS iter
   Number of Davidson start vectors     ....     2
   Converg. threshold I  (grad. norm)   ....   1.000e-05
   Converg. threshold II (energy diff.) ....   1.000e-08
   Grad. Scal. Fac. for Micro threshold ....   0.100
   Minimum threshold for Micro iter.    ....   0.010
   NR start threshold (gradient norm)   ....   0.001
   Initial trust radius                 ....   0.400
   Minimum AH scaling param. (alpha)    ....   1.000
   Maximum AH scaling param. (alpha)    .... 1000.000
   Orbital update algorithm             .... Taylor
   White noise on init. David. guess    .... on
   Maximum white noise                  ....   0.010
   Quad. conv. algorithm                .... NR
 SOSCF                  CNVSOSCF        .... on
   Start iteration      SOSCFMaxIt      ....   150
   Startup grad/error   SOSCFStart      ....  0.003300
 Level Shifting         CNVShift        .... on
   Level shift para.    LevelShift      ....    0.2500
   Turn off err/grad.   ShiftErr        ....    0.0010
 Zerner damping         CNVZerner       .... off
 Static damping         CNVDamp         .... on
   Fraction old density DampFac         ....    0.7000
   Max. Damping (<1)    DampMax         ....    0.9800
   Min. Damping (>=0)   DampMin         ....    0.0000
   Turn off err/grad.   DampErr         ....    0.1000
 Fernandez-Rico         CNVRico         .... off

SCF Procedure:
 Maximum # iterations   MaxIter         ....   125
 SCF integral mode      SCFMode         .... Direct
   Integral package                     .... SHARK and LIBINT hybrid scheme
 Reset frequency        DirectResetFreq ....    20
 Integral Threshold     Thresh          ....  2.500e-11 Eh
 Primitive CutOff       TCut            ....  2.500e-12 Eh

Convergence Tolerance:
 Convergence Check Mode ConvCheckMode   .... Total+1el-Energy
 Convergence forced     ConvForced      .... 0
 Energy Change          TolE            ....  1.000e-08 Eh
 1-El. energy change                    ....  1.000e-05 Eh
 Orbital Gradient       TolG            ....  1.000e-05
 Orbital Rotation angle TolX            ....  1.000e-05
 DIIS Error             TolErr          ....  5.000e-07


Diagonalization of the overlap matrix:
Smallest eigenvalue                        ... 7.140e-04
Time for diagonalization                   ...    0.001 sec
Threshold for overlap eigenvalues          ... 1.000e-08
Number of eigenvalues below threshold      ... 0
Time for construction of square roots      ...    0.001 sec
Total time needed                          ...    0.003 sec

Time for model grid setup =    0.023 sec

------------------------------
INITIAL GUESS: MODEL POTENTIAL
------------------------------
Loading Hartree-Fock densities                     ... done
Calculating cut-offs                               ... done
Initializing the effective Hamiltonian             ... done
Setting up the integral package (SHARK)            ... done
Starting the Coulomb interaction                   ... done (   0.0 sec)
Reading the grid                                   ... done
Mapping shells                                     ... done
Starting the XC term evaluation                    ... done (   0.0 sec)
  promolecular density results
     # of electrons  =     23.998549744
     EX              =    -19.465810093
     EC              =     -0.765920065
     EX+EC           =    -20.231730158
Transforming the Hamiltonian                       ... done (   0.0 sec)
Diagonalizing the Hamiltonian                      ... done (   0.0 sec)
Back transforming the eigenvectors                 ... done (   0.0 sec)
Now organizing SCF variables                       ... done
                      ------------------
                      INITIAL GUESS DONE (   0.0 sec)
                      ------------------
-------------------
DFT GRID GENERATION
-------------------

General Integration Accuracy     IntAcc      ... 4.388
Radial Grid Type                 RadialGrid  ... OptM3 with GC (2021)
Angular Grid (max. ang.)         AngularGrid ... 4 (Lebedev-302)
Angular grid pruning method      GridPruning ... 4 (adaptive)
Weight generation scheme         WeightScheme... Becke
Basis function cutoff            BFCut       ... 1.0000e-11
Integration weight cutoff        WCut        ... 1.0000e-14
Angular grids for H and He will be reduced by one unit
Partially contracted basis set               ... off
Rotationally invariant grid construction     ... off

Total number of grid points                  ...    31342
Total number of batches                      ...      493
Average number of points per batch           ...       63
Average number of grid points per atom       ...     4477
Time for grid setup =    0.110 sec

--------------------
COSX GRID GENERATION
--------------------

GRIDX 1
-------
General Integration Accuracy     IntAcc      ... 3.816
Radial Grid Type                 RadialGrid  ... OptM3 with GC (2021)
Angular Grid (max. ang.)         AngularGrid ... 1 (Lebedev-50)
Angular grid pruning method      GridPruning ... 4 (adaptive)
Weight generation scheme         WeightScheme... Becke
Basis function cutoff            BFCut       ... 1.0000e-11
Integration weight cutoff        WCut        ... 1.0000e-14
Angular grids for H and He will be reduced by one unit
Partially contracted basis set               ... on
Rotationally invariant grid construction     ... off

Total number of grid points                  ...     4047
Total number of batches                      ...       67
Average number of points per batch           ...       60
Average number of grid points per atom       ...      578
UseSFitting                                  ... on

GRIDX 2
-------
General Integration Accuracy     IntAcc      ... 4.020
Radial Grid Type                 RadialGrid  ... OptM3 with GC (2021)
Angular Grid (max. ang.)         AngularGrid ... 2 (Lebedev-110)
Angular grid pruning method      GridPruning ... 4 (adaptive)
Weight generation scheme         WeightScheme... Becke
Basis function cutoff            BFCut       ... 1.0000e-11
Integration weight cutoff        WCut        ... 1.0000e-14
Angular grids for H and He will be reduced by one unit
Partially contracted basis set               ... on
Rotationally invariant grid construction     ... off

Total number of grid points                  ...     8719
Total number of batches                      ...      140
Average number of points per batch           ...       62
Average number of grid points per atom       ...     1246
UseSFitting                                  ... on

GRIDX 3
-------
General Integration Accuracy     IntAcc      ... 4.338
Radial Grid Type                 RadialGrid  ... OptM3 with GC (2021)
Angular Grid (max. ang.)         AngularGrid ... 3 (Lebedev-194)
Angular grid pruning method      GridPruning ... 4 (adaptive)
Weight generation scheme         WeightScheme... Becke
Basis function cutoff            BFCut       ... 1.0000e-11
Integration weight cutoff        WCut        ... 1.0000e-14
Angular grids for H and He will be reduced by one unit
Partially contracted basis set               ... on
Rotationally invariant grid construction     ... off

Total number of grid points                  ...    19260
Total number of batches                      ...      304
Average number of points per batch           ...       63
Average number of grid points per atom       ...     2751
UseSFitting                                  ... on

Time for X-Grid setup             =    0.072 sec

--------------
SCF ITERATIONS
--------------
ITER       Energy         Delta-E        Max-DP      RMS-DP      [F,P]     Damp
               ***  Starting incremental Fock matrix formation  ***
  0   -153.1905387351   0.000000000000 0.16531585  0.00493421  0.3799272 0.7000
  1   -153.3280681573  -0.137529422247 0.07850882  0.00220531  0.0924070 0.7000
                               ***Turning on DIIS***
  2   -153.3135098179   0.014558339456 0.03903084  0.00133373  0.1124247 0.7000
  3   -153.3606418994  -0.047132081537 0.10853951  0.00319643  0.0500364 0.0000
  4   -153.4298996086  -0.069257709156 0.01762342  0.00068348  0.0906785 0.0000
  5   -153.4394796627  -0.009580054094 0.00736335  0.00045332  0.0569716 0.0000
  6   -153.4438880965  -0.004408433803 0.00522855  0.00029817  0.0305495 0.0000
  7   -153.4455238301  -0.001635733656 0.00276891  0.00014347  0.0114574 0.0000
                      *** Initiating the SOSCF procedure ***
                           *** Shutting down DIIS ***
                      *** Re-Reading the Fockian *** 
                      *** Removing any level shift *** 
ITER      Energy       Delta-E        Grad      Rot      Max-DP    RMS-DP
  8   -153.44583265  -0.0003088217  0.002409  0.002409  0.001420  0.000068
               *** Restarting incremental Fock matrix formation ***
  9   -153.44590431  -0.0000716558  0.001602  0.012041  0.004466  0.000164
 10   -153.44582642   0.0000778851  0.004552  0.014124  0.004285  0.000191
 11   -153.44596802  -0.0001416022  0.000626  0.004011  0.001557  0.000077
 12   -153.44597722  -0.0000091968  0.001272  0.003439  0.001196  0.000053
 13   -153.44599566  -0.0000184417  0.000235  0.006667  0.001612  0.000074
 14   -153.44600081  -0.0000051475  0.000190  0.005384  0.001338  0.000058
 15   -153.44600275  -0.0000019359  0.000104  0.000744  0.000247  0.000011
 16   -153.44600290  -0.0000001543  0.000034  0.000242  0.000058  0.000003
 17   -153.44600294  -0.0000000409  0.000006  0.000045  0.000014  0.000001
 18   -153.44600294  -0.0000000022  0.000003  0.000017  0.000008  0.000000
                 **** Energy Check signals convergence ****
              ***Rediagonalizing the Fockian in SOSCF/NRSCF***

               *****************************************************
               *                     SUCCESS                       *
               *           SCF CONVERGED AFTER  19 CYCLES          *
               *****************************************************

Old exchange energy                            =     -4.954855487 Eh
New exchange energy                            =     -4.954863828 Eh
Exchange energy change after final integration =     -0.000008341 Eh
Total energy after final integration           =   -153.446011285 Eh
Final COS-X integration done in                =     0.323 sec

----------------
TOTAL SCF ENERGY
----------------

Total Energy       :         -153.44601129 Eh           -4175.47824 eV

Components:
Nuclear Repulsion  :           67.21363355 Eh            1828.97595 eV
Electronic Energy  :         -220.65964484 Eh           -6004.45420 eV
One Electron Energy:         -341.19586932 Eh           -9284.41161 eV
Two Electron Energy:          120.53622449 Eh            3279.95742 eV
Max COSX asymmetry :            0.00000237 Eh               0.00006 eV

Virial components:
Potential Energy   :         -306.49233645 Eh           -8340.08048 eV
Kinetic Energy     :          153.04632516 Eh            4164.60223 eV
Virial Ratio       :            2.00261154


DFT components:
N(Alpha)           :       11.999992818249 electrons
N(Beta)            :       11.999992818249 electrons
N(Total)           :       23.999985636497 electrons
E(X)               :      -14.903029460537 Eh       
E(C)               :       -0.771746439798 Eh       
E(XC)              :      -15.674775900335 Eh       
DFET-embed. en.    :        0.000000000000 Eh       

---------------
SCF CONVERGENCE
---------------

  Last Energy change         ...   -3.3586e-10  Tolerance :   1.0000e-08
  Last MAX-Density change    ...    7.7716e-16  Tolerance :   1.0000e-07
  Last RMS-Density change    ...    1.6938e-17  Tolerance :   5.0000e-09
  Last Orbital Gradient      ...    9.6846e-07  Tolerance :   1.0000e-05
  Last Orbital Rotation      ...    5.6498e-06  Tolerance :   1.0000e-05

             **** THE GBW FILE WAS UPDATED (ox_gs_G_orca0006.gbw) ****
             **** DENSITY ox_gs_G_orca0006.scfp WAS UPDATED ****
             **** ENERGY FILE WAS UPDATED (ox_gs_G_orca0006.en.tmp) ****
             **** THE GBW FILE WAS UPDATED (ox_gs_G_orca0006.gbw) ****
             **** DENSITY ox_gs_G_orca0006.scfp WAS UPDATED ****
----------------
ORBITAL ENERGIES
----------------

  NO   OCC          E(Eh)            E(eV) 
   0   2.0000     -19.183489      -522.0093 
   1   2.0000     -10.289600      -279.9943 
   2   2.0000     -10.279321      -279.7145 
   3   2.0000      -0.986202       -26.8359 
   4   2.0000      -0.775261       -21.0959 
   5   2.0000      -0.625720       -17.0267 
   6   2.0000      -0.540777       -14.7153 
   7   2.0000      -0.467686       -12.7264 
   8   2.0000      -0.451844       -12.2953 
   9   2.0000      -0.377714       -10.2781 
  10   2.0000      -0.252933        -6.8827 
  11   2.0000      -0.233611        -6.3569 
  12   0.0000      -0.166191        -4.5223 
  13   0.0000       0.042729         1.1627 
  14   0.0000       0.083804         2.2804 
  15   0.0000       0.097541         2.6542 
  16   0.0000       0.120698         3.2844 
  17   0.0000       0.150020         4.0822 
  18   0.0000       0.177952         4.8423 
  19   0.0000       0.205328         5.5872 
  20   0.0000       0.232876         6.3369 
  21   0.0000       0.240689         6.5495 
  22   0.0000       0.262163         7.1338 
  23   0.0000       0.301333         8.1997 
  24   0.0000       0.323304         8.7976 
  25   0.0000       0.345297         9.3960 
  26   0.0000       0.402376        10.9492 
  27   0.0000       0.416446        11.3321 
  28   0.0000       0.460460        12.5298 
  29   0.0000       0.474787        12.9196 
  30   0.0000       0.531059        14.4509 
  31   0.0000       0.544789        14.8245 
  32   0.0000       0.554646        15.0927 
  33   0.0000       0.602585        16.3972 
  34   0.0000       0.705953        19.2100 
  35   0.0000       0.739125        20.1126 
  36   0.0000       0.776270        21.1234 
  37   0.0000       0.811427        22.0801 
  38   0.0000       0.906659        24.6715 
  39   0.0000       0.924119        25.1465 
  40   0.0000       0.948172        25.8011 
  41   0.0000       1.009701        27.4754 
  42   0.0000       1.018724        27.7209 
  43   0.0000       1.098007        29.8783 
  44   0.0000       1.149111        31.2689 
  45   0.0000       1.330295        36.1992 
  46   0.0000       1.406226        38.2654 
  47   0.0000       1.429270        38.8924 
  48   0.0000       1.454349        39.5749 
  49   0.0000       1.499617        40.8067 
  50   0.0000       1.559200        42.4280 
  51   0.0000       1.613713        43.9114 
  52   0.0000       1.622471        44.1497 
  53   0.0000       1.659504        45.1574 
  54   0.0000       1.704470        46.3810 
  55   0.0000       1.757878        47.8343 
  56   0.0000       1.780947        48.4620 
  57   0.0000       1.840457        50.0814 
  58   0.0000       1.921587        52.2891 
  59   0.0000       1.953420        53.1553 
  60   0.0000       1.985574        54.0302 
  61   0.0000       2.023326        55.0575 
  62   0.0000       2.127736        57.8986 
  63   0.0000       2.242025        61.0086 
  64   0.0000       2.282246        62.1031 
  65   0.0000       2.349440        63.9315 
  66   0.0000       2.386898        64.9508 
  67   0.0000       2.494650        67.8829 
  68   0.0000       2.518753        68.5388 
  69   0.0000       2.555333        69.5341 
  70   0.0000       2.587907        70.4205 
  71   0.0000       2.606911        70.9376 
  72   0.0000       2.644358        71.9566 
  73   0.0000       2.662284        72.4444 
  74   0.0000       2.775095        75.5142 
  75   0.0000       2.803924        76.2986 
  76   0.0000       2.888614        78.6032 
  77   0.0000       2.965596        80.6980 
  78   0.0000       2.994053        81.4723 
  79   0.0000       3.003890        81.7400 
  80   0.0000       3.067610        83.4739 
  81   0.0000       3.080414        83.8223 
  82   0.0000       3.132590        85.2421 
  83   0.0000       3.167269        86.1858 
  84   0.0000       3.243735        88.2665 
  85   0.0000       3.286821        89.4390 
  86   0.0000       3.299324        89.7792 
  87   0.0000       3.394918        92.3804 
  88   0.0000       3.429432        93.3196 
  89   0.0000       3.454131        93.9917 
  90   0.0000       3.503227        95.3277 
  91   0.0000       3.616999        98.4236 
  92   0.0000       3.703240       100.7703 
  93   0.0000       3.833845       104.3242 
  94   0.0000       3.953671       107.5849 
  95   0.0000       3.971330       108.0654 
  96   0.0000       4.085951       111.1844 
  97   0.0000       4.377433       119.1160 
  98   0.0000       4.502560       122.5209 
  99   0.0000       4.572925       124.4356 
 100   0.0000       4.609743       125.4375 
 101   0.0000       4.695147       127.7614 
 102   0.0000       5.193649       141.3264 
 103   0.0000       5.238139       142.5370 
 104   0.0000       5.373127       146.2102 
 105   0.0000       5.391142       146.7004 
 106   0.0000       5.695461       154.9814 
 107   0.0000       5.725266       155.7924 
 108   0.0000       5.926535       161.2692 
 109   0.0000       6.359964       173.0634 
 110   0.0000       6.373947       173.4439 
 111   0.0000       6.747407       183.6063 
 112   0.0000       6.775511       184.3710 
 113   0.0000       6.976784       189.8480 
 114   0.0000      22.161106       603.0343 
 115   0.0000      22.347724       608.1125 
 116   0.0000      43.753037      1190.5807 

                    ********************************
                    * MULLIKEN POPULATION ANALYSIS *
                    ********************************

-----------------------
MULLIKEN ATOMIC CHARGES
-----------------------
   0 O :   -0.414217
   1 C :   -0.161349
   2 C :   -0.107260
   3 H :    0.160957
   4 H :    0.221270
   5 H :    0.159819
   6 H :    0.140781
Sum of atomic charges:   -0.0000000

--------------------------------
MULLIKEN REDUCED ORBITAL CHARGES
--------------------------------
  0 O s       :     3.911526  s :     3.911526
      pz      :     1.435274  p :     4.478394
      px      :     1.683513
      py      :     1.359607
      dz2     :     0.002730  d :     0.023092
      dxz     :     0.000787
      dyz     :     0.006224
      dx2y2   :     0.006131
      dxy     :     0.007221
      f0      :     0.000109  f :     0.001205
      f+1     :     0.000053
      f-1     :     0.000112
      f+2     :     0.000141
      f-2     :     0.000116
      f+3     :     0.000416
      f-3     :     0.000259
  1 C s       :     3.247361  s :     3.247361
      pz      :     1.043122  p :     2.762261
      px      :     0.892059
      py      :     0.827080
      dz2     :     0.016999  d :     0.141409
      dxz     :     0.026430
      dyz     :     0.026138
      dx2y2   :     0.034557
      dxy     :     0.037286
      f0      :     0.001274  f :     0.010318
      f+1     :     0.001562
      f-1     :     0.000205
      f+2     :     0.001218
      f-2     :     0.000769
      f+3     :     0.001995
      f-3     :     0.003295
  2 C s       :     3.283224  s :     3.283224
      pz      :     1.030943  p :     2.781265
      px      :     0.996438
      py      :     0.753884
      dz2     :     0.006149  d :     0.039302
      dxz     :     0.015731
      dyz     :     0.002945
      dx2y2   :     0.004278
      dxy     :     0.010200
      f0      :     0.000547  f :     0.003469
      f+1     :     0.000913
      f-1     :     0.000253
      f+2     :     0.000451
      f-2     :     0.000054
      f+3     :     0.000491
      f-3     :     0.000761
  3 H s       :     0.809642  s :     0.809642
      pz      :     0.011641  p :     0.029401
      px      :     0.008052
      py      :     0.009707
  4 H s       :     0.753361  s :     0.753361
      pz      :     0.011303  p :     0.025369
      px      :     0.006666
      py      :     0.007400
  5 H s       :     0.815811  s :     0.815811
      pz      :     0.012077  p :     0.024370
      px      :     0.006682
      py      :     0.005611
  6 H s       :     0.834286  s :     0.834286
      pz      :     0.011675  p :     0.024933
      px      :     0.007457
      py      :     0.005800


                     *******************************
                     * LOEWDIN POPULATION ANALYSIS *
                     *******************************

----------------------
LOEWDIN ATOMIC CHARGES
----------------------
   0 O :   -0.136416
   1 C :   -0.393866
   2 C :   -0.014531
   3 H :    0.109989
   4 H :    0.221969
   5 H :    0.119730
   6 H :    0.093125

-------------------------------
LOEWDIN REDUCED ORBITAL CHARGES
-------------------------------
  0 O s       :     3.596226  s :     3.596226
      pz      :     1.387399  p :     4.481373
      px      :     1.651193
      py      :     1.442781
      dz2     :     0.006076  d :     0.055479
      dxz     :     0.001975
      dyz     :     0.015308
      dx2y2   :     0.017285
      dxy     :     0.014835
      f0      :     0.000397  f :     0.003339
      f+1     :     0.000137
      f-1     :     0.000349
      f+2     :     0.000366
      f-2     :     0.000354
      f+3     :     0.000863
      f-3     :     0.000872
  1 C s       :     2.852110  s :     2.852110
      pz      :     1.029166  p :     2.958803
      px      :     1.011784
      py      :     0.917853
      dz2     :     0.083831  d :     0.517754
      dxz     :     0.092520
      dyz     :     0.064892
      dx2y2   :     0.145837
      dxy     :     0.130673
      f0      :     0.007456  f :     0.065199
      f+1     :     0.007468
      f-1     :     0.004932
      f+2     :     0.006327
      f-2     :     0.004202
      f+3     :     0.016353
      f-3     :     0.018460
  2 C s       :     2.922925  s :     2.922925
      pz      :     1.083295  p :     2.890036
      px      :     1.100550
      py      :     0.706191
      dz2     :     0.031513  d :     0.181811
      dxz     :     0.074983
      dyz     :     0.010830
      dx2y2   :     0.031447
      dxy     :     0.033038
      f0      :     0.003105  f :     0.019760
      f+1     :     0.003438
      f-1     :     0.001728
      f+2     :     0.002579
      f-2     :     0.001896
      f+3     :     0.003223
      f-3     :     0.003791
  3 H s       :     0.799738  s :     0.799738
      pz      :     0.037436  p :     0.090272
      px      :     0.024086
      py      :     0.028750
  4 H s       :     0.714233  s :     0.714233
      pz      :     0.029739  p :     0.063798
      px      :     0.016890
      py      :     0.017168
  5 H s       :     0.805859  s :     0.805859
      pz      :     0.037628  p :     0.074411
      px      :     0.019533
      py      :     0.017249
  6 H s       :     0.823279  s :     0.823279
      pz      :     0.038946  p :     0.083596
      px      :     0.024175
      py      :     0.020474


                      *****************************
                      * MAYER POPULATION ANALYSIS *
                      *****************************

  NA   - Mulliken gross atomic population
  ZA   - Total nuclear charge
  QA   - Mulliken gross atomic charge
  VA   - Mayer's total valence
  BVA  - Mayer's bonded valence
  FA   - Mayer's free valence

  ATOM       NA         ZA         QA         VA         BVA        FA
  0 O      8.4142     8.0000    -0.4142     1.6988     1.6988    -0.0000
  1 C      6.1613     6.0000    -0.1613     4.0141     4.0141    -0.0000
  2 C      6.1073     6.0000    -0.1073     3.7172     3.7172    -0.0000
  3 H      0.8390     1.0000     0.1610     0.9980     0.9980    -0.0000
  4 H      0.7787     1.0000     0.2213     0.9782     0.9782    -0.0000
  5 H      0.8402     1.0000     0.1598     0.9680     0.9680     0.0000
  6 H      0.8592     1.0000     0.1408     0.9844     0.9844    -0.0000

  Mayer bond orders larger than 0.100000
B(  0-O ,  1-C ) :   0.9960 B(  0-O ,  2-C ) :   0.5922 B(  1-C ,  2-C ) :   1.1810 
B(  1-C ,  3-H ) :   0.9944 B(  1-C ,  4-H ) :   0.8281 B(  2-C ,  5-H ) :   0.9406 
B(  2-C ,  6-H ) :   0.9653 

-------
TIMINGS
-------

Total SCF time: 0 days 0 hours 0 min 4 sec 

Total time                  ....       4.481 sec
Sum of individual times     ....       4.200 sec  ( 93.7%)

Fock matrix formation       ....       3.903 sec  ( 87.1%)
  Split-RI-J                ....       0.368 sec  (  9.4% of F)
  Chain of spheres X        ....       2.717 sec  ( 69.6% of F)
  XC integration            ....       0.735 sec  ( 18.8% of F)
    Basis function eval.    ....       0.205 sec  ( 27.9% of XC)
    Density eval.           ....       0.153 sec  ( 20.9% of XC)
    XC-Functional eval.     ....       0.044 sec  (  6.0% of XC)
    XC-Potential eval.      ....       0.256 sec  ( 34.8% of XC)
Diagonalization             ....       0.020 sec  (  0.5%)
Density matrix formation    ....       0.002 sec  (  0.1%)
Population analysis         ....       0.005 sec  (  0.1%)
Initial guess               ....       0.017 sec  (  0.4%)
Orbital Transformation      ....       0.000 sec  (  0.0%)
Orbital Orthonormalization  ....       0.000 sec  (  0.0%)
DIIS solution               ....       0.018 sec  (  0.4%)
SOSCF solution              ....       0.030 sec  (  0.7%)
Grid generation             ....       0.205 sec  (  4.6%)

Maximum memory used throughout the entire SCF-calculation: 61.0 MB


-------------------------------------------------------------------------------
                          DFT DISPERSION CORRECTION                            
                                                                               
                              DFTD3 V3.1  Rev 1                                
                          USING Becke-Johnson damping                          
-------------------------------------------------------------------------------
The PBE0 functional is recognized
Active option DFTDOPT                   ...         4   

molecular C6(AA) [au] = 394.878723 


            DFT-D V3
 parameters
 s6 scaling factor         :     1.0000 
 a1 scaling factor         :     0.4145 
 s8 scaling factor         :     1.2177 
 a2 scaling factor         :     4.8593 
 ad hoc parameters k1-k3   :    16.0000     1.3333    -4.0000 

 Edisp/kcal,au: -1.637536593428  -0.002609580391 
 E6   /kcal   :  -1.068672701 
 E8   /kcal   :  -0.568863893 
 % E8         :  34.739003393 

-------------------------   ----------------
Dispersion correction           -0.002609580
-------------------------   ----------------


-------------------------   --------------------
FINAL SINGLE POINT ENERGY      -153.448620865768
-------------------------   --------------------



           ************************************************************
           *        Program running with 8 parallel MPI-processes     *
           *              working on a common directory               *
           ************************************************************
------------------------------------------------------------------------------
                         ORCA SCF GRADIENT CALCULATION
------------------------------------------------------------------------------

 ... reading COSX grid (gridx3)
Gradient of the Kohn-Sham DFT energy:
Kohn-Sham wavefunction type      ... RKS
Hartree-Fock exchange scaling    ...    0.250
Number of operators              ...    1
Number of atoms                  ...    7
Basis set dimensions             ...  117
Integral neglect threshold       ... 2.5e-11
Integral primitive cutoff        ... 2.5e-12
SHARK Integral package           ... ON

Nuc. rep. gradient       (SHARK) ... done (  0.0 sec)
HCore & Overlap gradient (SHARK) ... done (  0.0 sec)
RI-J gradient            (SHARK) ... done (  0.1 sec)
COSX-gradient                    ... done (  0.4 sec)
Exchange-correlation gradient    ... done
Dispersion correction            ... done

------------------
CARTESIAN GRADIENT
------------------

   1   O   :   -0.008537062   -0.034390755    0.035426403
   2   C   :   -0.061185171   -0.083948792    0.056246927
   3   C   :    0.123035462    0.023203004    0.042265396
   4   H   :    0.026179148    0.069650116   -0.074005653
   5   H   :   -0.011978349    0.023619898   -0.017921345
   6   H   :   -0.017862737   -0.017784547    0.024525331
   7   H   :   -0.049730742    0.019522504   -0.066542857

Difference to translation invariance:
           :   -0.0000794508   -0.0001285730   -0.0000057972

Difference to rotation invariance:
           :    0.0000368639    0.0001067036    0.0006992812

Norm of the cartesian gradient     ...    0.2334155291
RMS gradient                       ...    0.0509354443
MAX gradient                       ...    0.1230354620

-------
TIMINGS
-------

Total SCF gradient time            ...        0.799 sec

One electron gradient       ....       0.010 sec  (  1.3%)
RI-J Coulomb gradient       ....       0.084 sec  ( 10.6%)
COSX gradient               ....       0.373 sec  ( 46.7%)
XC gradient                 ....       0.185 sec  ( 23.2%)

Maximum memory used throughout the entire SCFGRAD-calculation: 35.8 MB

                            ***************************************
                            *     ORCA property calculations      *
                            ***************************************

                                    ---------------------
                                    Active property flags
                                    ---------------------
   (+) Dipole Moment


------------------------------------------------------------------------------
                       ORCA ELECTRIC PROPERTIES CALCULATION
------------------------------------------------------------------------------

Dipole Moment Calculation                       ... on
Quadrupole Moment Calculation                   ... off
Polarizability Calculation                      ... off
GBWName                                         ... ox_gs_G_orca0006.gbw
Electron density                                ... ox_gs_G_orca0006.scfp
The origin for moment calculation is the CENTER OF MASS  = (-0.946686, -0.054294  0.029722)

-------------
DIPOLE MOMENT
-------------
                                X             Y             Z
Electronic contribution:     -0.87995       1.23166       0.19595
Nuclear contribution   :      1.78938      -2.25764      -0.20109
                        -----------------------------------------
Total Dipole Moment    :      0.90943      -1.02598      -0.00514
                        -----------------------------------------
Magnitude (a.u.)       :      1.37103
Magnitude (Debye)      :      3.48488



--------------------
Rotational spectrum 
--------------------
 
Rotational constants in cm-1:     1.526816     0.321393     0.297253 
Rotational constants in MHz : 45772.801467  9635.112336  8911.413652 

 Dipole components along the rotational axes: 
x,y,z [a.u.] :     1.275567     0.501067    -0.039744 
x,y,z [Debye]:     3.242233     1.273610    -0.101022 

 

Timings for individual modules:

Sum of individual times         ...        5.973 sec (=   0.100 min)
GTO integral calculation        ...        0.302 sec (=   0.005 min)   5.1 %
SCF iterations                  ...        4.660 sec (=   0.078 min)  78.0 %
SCF Gradient evaluation         ...        1.011 sec (=   0.017 min)  16.9 %
                             ****ORCA TERMINATED NORMALLY****
TOTAL RUN TIME: 0 days 0 hours 0 minutes 6 seconds 250 msec
