
                                 *****************
                                 * O   R   C   A *
                                 *****************

                                            #,                                       
                                            ###                                      
                                            ####                                     
                                            #####                                    
                                            ######                                   
                                           ########,                                 
                                     ,,################,,,,,                         
                               ,,#################################,,                 
                          ,,##########################################,,             
                       ,#########################################, ''#####,          
                    ,#############################################,,   '####,        
                  ,##################################################,,,,####,       
                ,###########''''           ''''###############################       
              ,#####''   ,,,,##########,,,,          '''####'''          '####       
            ,##' ,,,,###########################,,,                        '##       
           ' ,,###''''                  '''############,,,                           
         ,,##''                                '''############,,,,        ,,,,,,###''
      ,#''                                            '''#######################'''  
     '                                                          ''''####''''         
             ,#######,   #######,   ,#######,      ##                                
            ,#'     '#,  ##    ##  ,#'     '#,    #''#        ######   ,####,        
            ##       ##  ##   ,#'  ##            #'  '#       #        #'  '#        
            ##       ##  #######   ##           ,######,      #####,   #    #        
            '#,     ,#'  ##    ##  '#,     ,#' ,#      #,         ##   #,  ,#        
             '#######'   ##     ##  '#######'  #'      '#     #####' # '####'        



                  #######################################################
                  #                        -***-                        #
                  #          Department of theory and spectroscopy      #
                  #    Directorship and core code : Frank Neese         #
                  #        Max Planck Institute fuer Kohlenforschung    #
                  #                Kaiser Wilhelm Platz 1               #
                  #                 D-45470 Muelheim/Ruhr               #
                  #                      Germany                        #
                  #                                                     #
                  #                  All rights reserved                #
                  #                        -***-                        #
                  #######################################################


                         Program Version 5.0.2 -  RELEASE  -


 With contributions from (in alphabetic order):
   Daniel Aravena         : Magnetic Suceptibility
   Michael Atanasov       : Ab Initio Ligand Field Theory (pilot matlab implementation)
   Alexander A. Auer      : GIAO ZORA, VPT2 properties, NMR spectrum
   Ute Becker             : Parallelization
   Giovanni Bistoni       : ED, misc. LED, open-shell LED, HFLD
   Martin Brehm           : Molecular dynamics
   Dmytro Bykov           : SCF Hessian
   Vijay G. Chilkuri      : MRCI spin determinant printing, contributions to CSF-ICE
   Dipayan Datta          : RHF DLPNO-CCSD density
   Achintya Kumar Dutta   : EOM-CC, STEOM-CC
   Dmitry Ganyushin       : Spin-Orbit,Spin-Spin,Magnetic field MRCI
   Miquel Garcia          : C-PCM and meta-GGA Hessian, CC/C-PCM, Gaussian charge scheme
   Yang Guo               : DLPNO-NEVPT2, F12-NEVPT2, CIM, IAO-localization
   Andreas Hansen         : Spin unrestricted coupled pair/coupled cluster methods
   Benjamin Helmich-Paris : MC-RPA, TRAH-SCF, COSX integrals
   Lee Huntington         : MR-EOM, pCC
   Robert Izsak           : Overlap fitted RIJCOSX, COSX-SCS-MP3, EOM
   Marcus Kettner         : VPT2
   Christian Kollmar      : KDIIS, OOCD, Brueckner-CCSD(T), CCSD density, CASPT2, CASPT2-K
   Simone Kossmann        : Meta GGA functionals, TD-DFT gradient, OOMP2, MP2 Hessian
   Martin Krupicka        : Initial AUTO-CI
   Lucas Lang             : DCDCAS
   Marvin Lechner         : AUTO-CI (C++ implementation), FIC-MRCC
   Dagmar Lenk            : GEPOL surface, SMD
   Dimitrios Liakos       : Extrapolation schemes; Compound Job, initial MDCI parallelization
   Dimitrios Manganas     : Further ROCIS development; embedding schemes
   Dimitrios Pantazis     : SARC Basis sets
   Anastasios Papadopoulos: AUTO-CI, single reference methods and gradients
   Taras Petrenko         : DFT Hessian,TD-DFT gradient, ASA, ECA, R-Raman, ABS, FL, XAS/XES, NRVS
   Peter Pinski           : DLPNO-MP2, DLPNO-MP2 Gradient
   Christoph Reimann      : Effective Core Potentials
   Marius Retegan         : Local ZFS, SOC
   Christoph Riplinger    : Optimizer, TS searches, QM/MM, DLPNO-CCSD(T), (RO)-DLPNO pert. Triples
   Tobias Risthaus        : Range-separated hybrids, TD-DFT gradient, RPA, STAB
   Michael Roemelt        : Original ROCIS implementation
   Masaaki Saitow         : Open-shell DLPNO-CCSD energy and density
   Barbara Sandhoefer     : DKH picture change effects
   Avijit Sen             : IP-ROCIS
   Kantharuban Sivalingam : CASSCF convergence, NEVPT2, FIC-MRCI
   Bernardo de Souza      : ESD, SOC TD-DFT
   Georgi Stoychev        : AutoAux, RI-MP2 NMR, DLPNO-MP2 response
   Willem Van den Heuvel  : Paramagnetic NMR
   Boris Wezisla          : Elementary symmetry handling
   Frank Wennmohs         : Technical directorship


 We gratefully acknowledge several colleagues who have allowed us to
 interface, adapt or use parts of their codes:
   Stefan Grimme, W. Hujo, H. Kruse, P. Pracht,  : VdW corrections, initial TS optimization,
                  C. Bannwarth, S. Ehlert          DFT functionals, gCP, sTDA/sTD-DF
   Ed Valeev, F. Pavosevic, A. Kumar             : LibInt (2-el integral package), F12 methods
   Garnet Chan, S. Sharma, J. Yang, R. Olivares  : DMRG
   Ulf Ekstrom                                   : XCFun DFT Library
   Mihaly Kallay                                 : mrcc  (arbitrary order and MRCC methods)
   Jiri Pittner, Ondrej Demel                    : Mk-CCSD
   Frank Weinhold                                : gennbo (NPA and NBO analysis)
   Christopher J. Cramer and Donald G. Truhlar   : smd solvation model
   Lars Goerigk                                  : TD-DFT with DH, B97 family of functionals
   V. Asgeirsson, H. Jonsson                     : NEB implementation
   FAccTs GmbH                                   : IRC, NEB, NEB-TS, DLPNO-Multilevel, CI-OPT
                                                   MM, QMMM, 2- and 3-layer-ONIOM, Crystal-QMMM,
                                                   LR-CPCM, SF, NACMEs, symmetry and pop. for TD-DFT,
                                                   nearIR, NL-DFT gradient (VV10), updates on ESD,
                                                   ML-optimized integration grids
   S Lehtola, MJT Oliveira, MAL Marques          : LibXC Library
   Liviu Ungur et al                             : ANISO software


 Your calculation uses the libint2 library for the computation of 2-el integrals
 For citations please refer to: http://libint.valeyev.net

 Your ORCA version has been built with support for libXC version: 5.1.0
 For citations please refer to: https://tddft.org/programs/libxc/

 This ORCA versions uses:
   CBLAS   interface :  Fast vector & matrix operations
   LAPACKE interface :  Fast linear algebra routines
   SCALAPACK package :  Parallel linear algebra routines
   Shared memory     :  Shared parallel matrices
   BLAS/LAPACK       :  OpenBLAS 0.3.15  USE64BITINT DYNAMIC_ARCH NO_AFFINITY SkylakeX SINGLE_THREADED
        Core in use  :  SkylakeX
   Copyright (c) 2011-2014, The OpenBLAS Project


Your calculation utilizes the atom-pairwise dispersion correction
with the Becke-Johnson damping scheme (D3BJ)
Cite in your paper:
S.Grimme, S.Ehrlich, L.Goerigk, J Comput Chem, (2011), 32, 1456–1465 
S.Grimme, J.Antony, S.Ehrlich and H.Krieg, J.Chem.Phys., 132, (2010), 154104 
   

================================================================================

----- Orbital basis set information -----
Your calculation utilizes the basis: def2-TZVP
   F. Weigend and R. Ahlrichs, Phys. Chem. Chem. Phys. 7, 3297 (2005).

----- AuxJ basis set information -----
Your calculation utilizes the auxiliary basis: def2/J
   F. Weigend, Phys. Chem. Chem. Phys. 8, 1057 (2006).

================================================================================
                                        WARNINGS
                       Please study these warnings very carefully!
================================================================================


INFO   : the flag for use of the SHARK integral package has been found!

================================================================================
                                       INPUT FILE
================================================================================
NAME = ox_gs_C_orca0007.inp
|  1> ! engrad PBE0 D3BJ def2-TZVP  
|  2> %pal nprocs 8 end
|  3> %maxcore 3000
|  4>  
|  5> *xyz 0 1 
|  6> O   -0.4618706394274144 0.9498162049882171 0.07426980844067353
|  7> C   -0.8163222838723501 -0.5541224370150177 0.03822767657603753
|  8> C   0.775682306296078 -0.4918924820479311 0.06550692792338313
|  9> H   -1.2709859356402615 -0.5513989060992441 0.880926474700438
| 10> H   -1.344299093714747 -0.6719114624381685 -0.9999532455586954
| 11> H   1.3393916713465093 -0.6500174913732019 -0.9082324173297085
| 12> H   1.2576812247015512 -0.6350366551603408 0.8414381176889978
| 13> *
| 14> 
| 15>                          ****END OF INPUT****
================================================================================

                     *******************************
                     * Energy+Gradient Calculation *
                     *******************************

---------------------------------
CARTESIAN COORDINATES (ANGSTROEM)
---------------------------------
  O     -0.461871    0.949816    0.074270
  C     -0.816322   -0.554122    0.038228
  C      0.775682   -0.491892    0.065507
  H     -1.270986   -0.551399    0.880926
  H     -1.344299   -0.671911   -0.999953
  H      1.339392   -0.650017   -0.908232
  H      1.257681   -0.635037    0.841438

----------------------------
CARTESIAN COORDINATES (A.U.)
----------------------------
  NO LB      ZA    FRAG     MASS         X           Y           Z
   0 O     8.0000    0    15.999   -0.872809    1.794893    0.140350
   1 C     6.0000    0    12.011   -1.542626   -1.047140    0.072240
   2 C     6.0000    0    12.011    1.465827   -0.929542    0.123790
   3 H     1.0000    0     1.008   -2.401815   -1.041993    1.664710
   4 H     1.0000    0     1.008   -2.540357   -1.269729   -1.889638
   5 H     1.0000    0     1.008    2.531083   -1.228355   -1.716311
   6 H     1.0000    0     1.008    2.376673   -1.200045    1.590088

--------------------------------
INTERNAL COORDINATES (ANGSTROEM)
--------------------------------
 O      0   0   0     0.000000000000     0.00000000     0.00000000
 C      1   0   0     1.545563470851     0.00000000     0.00000000
 C      2   1   0     1.593453902680    74.48282306     0.00000000
 H      2   1   3     0.957532097749    94.91075637   117.03221377
 H      2   1   3     1.170663655080   102.82768612   244.10438771
 H      3   2   1     1.136195440632   118.39709083   258.50892062
 H      3   2   1     0.924598519840   121.94822748   100.79175966

---------------------------
INTERNAL COORDINATES (A.U.)
---------------------------
 O      0   0   0     0.000000000000     0.00000000     0.00000000
 C      1   0   0     2.920691682502     0.00000000     0.00000000
 C      2   1   0     3.011191483094    74.48282306     0.00000000
 H      2   1   3     1.809473429185    94.91075637   117.03221377
 H      2   1   3     2.212233703037   102.82768612   244.10438771
 H      3   2   1     2.147098217405   118.39709083   258.50892062
 H      3   2   1     1.747237986327   121.94822748   100.79175966

---------------------
BASIS SET INFORMATION
---------------------
There are 3 groups of distinct atoms

 Group   1 Type O   : 11s6p2d1f contracted to 5s3p2d1f pattern {62111/411/11/1}
 Group   2 Type C   : 11s6p2d1f contracted to 5s3p2d1f pattern {62111/411/11/1}
 Group   3 Type H   : 5s1p contracted to 3s1p pattern {311/1}

Atom   0O    basis set group =>   1
Atom   1C    basis set group =>   2
Atom   2C    basis set group =>   2
Atom   3H    basis set group =>   3
Atom   4H    basis set group =>   3
Atom   5H    basis set group =>   3
Atom   6H    basis set group =>   3
---------------------------------
AUXILIARY/J BASIS SET INFORMATION
---------------------------------
There are 3 groups of distinct atoms

 Group   1 Type O   : 12s5p4d2f1g contracted to 6s4p3d1f1g pattern {711111/2111/211/2/1}
 Group   2 Type C   : 12s5p4d2f1g contracted to 6s4p3d1f1g pattern {711111/2111/211/2/1}
 Group   3 Type H   : 5s2p1d contracted to 3s1p1d pattern {311/2/1}

Atom   0O    basis set group =>   1
Atom   1C    basis set group =>   2
Atom   2C    basis set group =>   2
Atom   3H    basis set group =>   3
Atom   4H    basis set group =>   3
Atom   5H    basis set group =>   3
Atom   6H    basis set group =>   3


           ************************************************************
           *        Program running with 8 parallel MPI-processes     *
           *              working on a common directory               *
           ************************************************************
------------------------------------------------------------------------------
                           ORCA GTO INTEGRAL CALCULATION
                           -- RI-GTO INTEGRALS CHOSEN --
------------------------------------------------------------------------------
------------------------------------------------------------------------------
                   ___                                                        
                  /   \      - P O W E R E D   B Y -                         
                 /     \                                                     
                 |  |  |   _    _      __       _____    __    __             
                 |  |  |  | |  | |    /  \     |  _  \  |  |  /  |          
                  \  \/   | |  | |   /    \    | | | |  |  | /  /          
                 / \  \   | |__| |  /  /\  \   | |_| |  |  |/  /          
                |  |  |   |  __  | /  /__\  \  |    /   |      \           
                |  |  |   | |  | | |   __   |  |    \   |  |\   \          
                \     /   | |  | | |  |  |  |  | |\  \  |  | \   \       
                 \___/    |_|  |_| |__|  |__|  |_| \__\ |__|  \__/        
                                                                              
                      - O R C A' S   B I G   F R I E N D -                    
                                      &                                       
                       - I N T E G R A L  F E E D E R -                       
                                                                              
 v1 FN, 2020, v2 2021                                                         
------------------------------------------------------------------------------


Reading SHARK input file ox_gs_C_orca0007.SHARKINP.tmp ... ok
----------------------
SHARK INTEGRAL PACKAGE
----------------------

Number of atoms                             ...      7
Number of basis functions                   ...    117
Number of shells                            ...     49
Maximum angular momentum                    ...      3
Integral batch strategy                     ... SHARK/LIBINT Hybrid
RI-J (if used) integral strategy            ... SPLIT-RIJ (Revised 2003 algorithm where possible)
Printlevel                                  ...      1
Contraction scheme used                     ... SEGMENTED contraction
Coulomb Range Separation                    ... NOT USED
Exchange Range Separation                   ... NOT USED
Finite Nucleus Model                        ... NOT USED
Auxiliary Coulomb fitting basis             ... AVAILABLE
   # of basis functions in Aux-J            ...    191
   # of shells in Aux-J                     ...     65
   Maximum angular momentum in Aux-J        ...      4
Auxiliary J/K fitting basis                 ... NOT available
Auxiliary Correlation fitting basis         ... NOT available
Auxiliary 'external' fitting basis          ... NOT available
Integral threshold                          ...     2.500000e-11
Primitive cut-off                           ...     2.500000e-12
Primitive pair pre-selection threshold      ...     2.500000e-12

Calculating pre-screening integrals         ... done (  0.0 sec) Dimension = 49
Organizing shell pair data                  ... done (  0.0 sec)
Shell pair information
Total number of shell pairs                 ...      1225
Shell pairs after pre-screening             ...      1218
Total number of primitive shell pairs       ...      3648
Primitive shell pairs kept                  ...      3108
          la=0 lb=0:    371 shell pairs
          la=1 lb=0:    351 shell pairs
          la=1 lb=1:     91 shell pairs
          la=2 lb=0:    162 shell pairs
          la=2 lb=1:     78 shell pairs
          la=2 lb=2:     21 shell pairs
          la=3 lb=0:     81 shell pairs
          la=3 lb=1:     39 shell pairs
          la=3 lb=2:     18 shell pairs
          la=3 lb=3:      6 shell pairs

Calculating one electron integrals          ... done (  0.0 sec)
Calculating RI/J V-Matrix + Cholesky decomp.... done (  0.0 sec)
Calculating Nuclear repulsion               ... done (  0.0 sec) ENN=     68.459066605371 Eh

SHARK setup successfully completed in   0.1 seconds

Maximum memory used throughout the entire GTOINT-calculation: 14.9 MB


           ************************************************************
           *        Program running with 8 parallel MPI-processes     *
           *              working on a common directory               *
           ************************************************************
-------------------------------------------------------------------------------
                                 ORCA SCF
-------------------------------------------------------------------------------

------------
SCF SETTINGS
------------
Hamiltonian:
 Density Functional     Method          .... DFT(GTOs)
 Exchange Functional    Exchange        .... PBE
   PBE kappa parameter   XKappa         ....  0.804000
   PBE mue parameter    XMuePBE         ....  0.219520
 Correlation Functional Correlation     .... PBE
   PBE beta parameter  CBetaPBE         ....  0.066725
 LDA part of GGA corr.  LDAOpt          .... PW91-LDA
 Gradients option       PostSCFGGA      .... off
 Hybrid DFT is turned on
   Fraction HF Exchange ScalHFX         ....  0.250000
   Scaling of DF-GGA-X  ScalDFX         ....  0.750000
   Scaling of DF-GGA-C  ScalDFC         ....  1.000000
   Scaling of DF-LDA-C  ScalLDAC        ....  1.000000
   Perturbative correction              ....  0.000000
   Density functional embedding theory  .... OFF
   NL short-range parameter             ....  6.900000
 RI-approximation to the Coulomb term is turned on
   Number of AuxJ basis functions       .... 191
   RIJ-COSX (HFX calculated with COS-X)).... on


General Settings:
 Integral files         IntName         .... ox_gs_C_orca0007
 Hartree-Fock type      HFTyp           .... RHF
 Total Charge           Charge          ....    0
 Multiplicity           Mult            ....    1
 Number of Electrons    NEL             ....   24
 Basis Dimension        Dim             ....  117
 Nuclear Repulsion      ENuc            ....     68.4590666054 Eh

Convergence Acceleration:
 DIIS                   CNVDIIS         .... on
   Start iteration      DIISMaxIt       ....    12
   Startup error        DIISStart       ....  0.200000
   # of expansion vecs  DIISMaxEq       ....     5
   Bias factor          DIISBfac        ....   1.050
   Max. coefficient     DIISMaxC        ....  10.000
 Trust-Rad. Augm. Hess. CNVTRAH         .... auto
   Auto Start mean grad. ratio tolernc. ....  1.125000
   Auto Start start iteration           ....    20
   Auto Start num. interpolation iter.  ....    10
   Max. Number of Micro iterations      ....    16
   Max. Number of Macro iterations      .... Maxiter - #DIIS iter
   Number of Davidson start vectors     ....     2
   Converg. threshold I  (grad. norm)   ....   1.000e-05
   Converg. threshold II (energy diff.) ....   1.000e-08
   Grad. Scal. Fac. for Micro threshold ....   0.100
   Minimum threshold for Micro iter.    ....   0.010
   NR start threshold (gradient norm)   ....   0.001
   Initial trust radius                 ....   0.400
   Minimum AH scaling param. (alpha)    ....   1.000
   Maximum AH scaling param. (alpha)    .... 1000.000
   Orbital update algorithm             .... Taylor
   White noise on init. David. guess    .... on
   Maximum white noise                  ....   0.010
   Quad. conv. algorithm                .... NR
 SOSCF                  CNVSOSCF        .... on
   Start iteration      SOSCFMaxIt      ....   150
   Startup grad/error   SOSCFStart      ....  0.003300
 Level Shifting         CNVShift        .... on
   Level shift para.    LevelShift      ....    0.2500
   Turn off err/grad.   ShiftErr        ....    0.0010
 Zerner damping         CNVZerner       .... off
 Static damping         CNVDamp         .... on
   Fraction old density DampFac         ....    0.7000
   Max. Damping (<1)    DampMax         ....    0.9800
   Min. Damping (>=0)   DampMin         ....    0.0000
   Turn off err/grad.   DampErr         ....    0.1000
 Fernandez-Rico         CNVRico         .... off

SCF Procedure:
 Maximum # iterations   MaxIter         ....   125
 SCF integral mode      SCFMode         .... Direct
   Integral package                     .... SHARK and LIBINT hybrid scheme
 Reset frequency        DirectResetFreq ....    20
 Integral Threshold     Thresh          ....  2.500e-11 Eh
 Primitive CutOff       TCut            ....  2.500e-12 Eh

Convergence Tolerance:
 Convergence Check Mode ConvCheckMode   .... Total+1el-Energy
 Convergence forced     ConvForced      .... 0
 Energy Change          TolE            ....  1.000e-08 Eh
 1-El. energy change                    ....  1.000e-05 Eh
 Orbital Gradient       TolG            ....  1.000e-05
 Orbital Rotation angle TolX            ....  1.000e-05
 DIIS Error             TolErr          ....  5.000e-07


Diagonalization of the overlap matrix:
Smallest eigenvalue                        ... 8.468e-04
Time for diagonalization                   ...    0.001 sec
Threshold for overlap eigenvalues          ... 1.000e-08
Number of eigenvalues below threshold      ... 0
Time for construction of square roots      ...    0.001 sec
Total time needed                          ...    0.003 sec

Time for model grid setup =    0.022 sec

------------------------------
INITIAL GUESS: MODEL POTENTIAL
------------------------------
Loading Hartree-Fock densities                     ... done
Calculating cut-offs                               ... done
Initializing the effective Hamiltonian             ... done
Setting up the integral package (SHARK)            ... done
Starting the Coulomb interaction                   ... done (   0.0 sec)
Reading the grid                                   ... done
Mapping shells                                     ... done
Starting the XC term evaluation                    ... done (   0.0 sec)
  promolecular density results
     # of electrons  =     23.998536255
     EX              =    -19.440860984
     EC              =     -0.763203671
     EX+EC           =    -20.204064655
Transforming the Hamiltonian                       ... done (   0.0 sec)
Diagonalizing the Hamiltonian                      ... done (   0.0 sec)
Back transforming the eigenvectors                 ... done (   0.0 sec)
Now organizing SCF variables                       ... done
                      ------------------
                      INITIAL GUESS DONE (   0.0 sec)
                      ------------------
-------------------
DFT GRID GENERATION
-------------------

General Integration Accuracy     IntAcc      ... 4.388
Radial Grid Type                 RadialGrid  ... OptM3 with GC (2021)
Angular Grid (max. ang.)         AngularGrid ... 4 (Lebedev-302)
Angular grid pruning method      GridPruning ... 4 (adaptive)
Weight generation scheme         WeightScheme... Becke
Basis function cutoff            BFCut       ... 1.0000e-11
Integration weight cutoff        WCut        ... 1.0000e-14
Angular grids for H and He will be reduced by one unit
Partially contracted basis set               ... off
Rotationally invariant grid construction     ... off

Total number of grid points                  ...    31343
Total number of batches                      ...      493
Average number of points per batch           ...       63
Average number of grid points per atom       ...     4478
Time for grid setup =    0.112 sec

--------------------
COSX GRID GENERATION
--------------------

GRIDX 1
-------
General Integration Accuracy     IntAcc      ... 3.816
Radial Grid Type                 RadialGrid  ... OptM3 with GC (2021)
Angular Grid (max. ang.)         AngularGrid ... 1 (Lebedev-50)
Angular grid pruning method      GridPruning ... 4 (adaptive)
Weight generation scheme         WeightScheme... Becke
Basis function cutoff            BFCut       ... 1.0000e-11
Integration weight cutoff        WCut        ... 1.0000e-14
Angular grids for H and He will be reduced by one unit
Partially contracted basis set               ... on
Rotationally invariant grid construction     ... off

Total number of grid points                  ...     4040
Total number of batches                      ...       68
Average number of points per batch           ...       59
Average number of grid points per atom       ...      577
UseSFitting                                  ... on

GRIDX 2
-------
General Integration Accuracy     IntAcc      ... 4.020
Radial Grid Type                 RadialGrid  ... OptM3 with GC (2021)
Angular Grid (max. ang.)         AngularGrid ... 2 (Lebedev-110)
Angular grid pruning method      GridPruning ... 4 (adaptive)
Weight generation scheme         WeightScheme... Becke
Basis function cutoff            BFCut       ... 1.0000e-11
Integration weight cutoff        WCut        ... 1.0000e-14
Angular grids for H and He will be reduced by one unit
Partially contracted basis set               ... on
Rotationally invariant grid construction     ... off

Total number of grid points                  ...     8741
Total number of batches                      ...      141
Average number of points per batch           ...       61
Average number of grid points per atom       ...     1249
UseSFitting                                  ... on

GRIDX 3
-------
General Integration Accuracy     IntAcc      ... 4.338
Radial Grid Type                 RadialGrid  ... OptM3 with GC (2021)
Angular Grid (max. ang.)         AngularGrid ... 3 (Lebedev-194)
Angular grid pruning method      GridPruning ... 4 (adaptive)
Weight generation scheme         WeightScheme... Becke
Basis function cutoff            BFCut       ... 1.0000e-11
Integration weight cutoff        WCut        ... 1.0000e-14
Angular grids for H and He will be reduced by one unit
Partially contracted basis set               ... on
Rotationally invariant grid construction     ... off

Total number of grid points                  ...    19268
Total number of batches                      ...      304
Average number of points per batch           ...       63
Average number of grid points per atom       ...     2753
UseSFitting                                  ... on

Time for X-Grid setup             =    0.074 sec

--------------
SCF ITERATIONS
--------------
ITER       Energy         Delta-E        Max-DP      RMS-DP      [F,P]     Damp
               ***  Starting incremental Fock matrix formation  ***
  0   -153.4710728132   0.000000000000 0.04611753  0.00152188  0.2181420 0.7000
  1   -153.5086125633  -0.037539750139 0.02492430  0.00097317  0.0713125 0.7000
                               ***Turning on DIIS***
  2   -153.5198259865  -0.011213423247 0.02930378  0.00129317  0.0390557 0.0000
  3   -153.5447816546  -0.024955668033 0.01787030  0.00082688  0.0314938 0.0000
  4   -153.5468026937  -0.002021039137 0.00749003  0.00021963  0.0269653 0.0000
                      *** Initiating the SOSCF procedure ***
                           *** Shutting down DIIS ***
                      *** Re-Reading the Fockian *** 
                      *** Removing any level shift *** 
ITER      Energy       Delta-E        Grad      Rot      Max-DP    RMS-DP
  5   -153.54779308  -0.0009903891  0.000628  0.000628  0.001612  0.000049
               *** Restarting incremental Fock matrix formation ***
  6   -153.54781731  -0.0000242224  0.000652  0.002618  0.001598  0.000049
  7   -153.54780380   0.0000135035  0.001664  0.001755  0.001194  0.000035
  8   -153.54782078  -0.0000169734  0.000146  0.000321  0.000393  0.000013
  9   -153.54782048   0.0000002924  0.000171  0.000164  0.000210  0.000007
 10   -153.54782119  -0.0000007049  0.000014  0.000027  0.000033  0.000001
 11   -153.54782119   0.0000000003  0.000013  0.000011  0.000018  0.000001
                  ***Gradient check signals convergence***
              ***Rediagonalizing the Fockian in SOSCF/NRSCF***

               *****************************************************
               *                     SUCCESS                       *
               *           SCF CONVERGED AFTER  12 CYCLES          *
               *****************************************************

Old exchange energy                            =     -4.955683250 Eh
New exchange energy                            =     -4.955685454 Eh
Exchange energy change after final integration =     -0.000002204 Eh
Total energy after final integration           =   -153.547823398 Eh
Final COS-X integration done in                =     0.265 sec

----------------
TOTAL SCF ENERGY
----------------

Total Energy       :         -153.54782340 Eh           -4178.24869 eV

Components:
Nuclear Repulsion  :           68.45906661 Eh            1862.86591 eV
Electronic Energy  :         -222.00689000 Eh           -6041.11460 eV
One Electron Energy:         -343.74509374 Eh           -9353.77954 eV
Two Electron Energy:          121.73820374 Eh            3312.66494 eV
Max COSX asymmetry :            0.00000146 Eh               0.00004 eV

Virial components:
Potential Energy   :         -306.24675692 Eh           -8333.39792 eV
Kinetic Energy     :          152.69893352 Eh            4155.14922 eV
Virial Ratio       :            2.00555924


DFT components:
N(Alpha)           :       11.999998814623 electrons
N(Beta)            :       11.999998814623 electrons
N(Total)           :       23.999997629246 electrons
E(X)               :      -14.874779055560 Eh       
E(C)               :       -0.771618057004 Eh       
E(XC)              :      -15.646397112565 Eh       
DFET-embed. en.    :        0.000000000000 Eh       

---------------
SCF CONVERGENCE
---------------

  Last Energy change         ...   -6.5679e-09  Tolerance :   1.0000e-08
  Last MAX-Density change    ...    7.7716e-16  Tolerance :   1.0000e-07
  Last RMS-Density change    ...    2.3188e-17  Tolerance :   5.0000e-09
  Last Orbital Gradient      ...    9.8023e-07  Tolerance :   1.0000e-05
  Last Orbital Rotation      ...    1.3007e-06  Tolerance :   1.0000e-05

             **** THE GBW FILE WAS UPDATED (ox_gs_C_orca0007.gbw) ****
             **** DENSITY ox_gs_C_orca0007.scfp WAS UPDATED ****
             **** ENERGY FILE WAS UPDATED (ox_gs_C_orca0007.en.tmp) ****
             **** THE GBW FILE WAS UPDATED (ox_gs_C_orca0007.gbw) ****
             **** DENSITY ox_gs_C_orca0007.scfp WAS UPDATED ****
----------------
ORBITAL ENERGIES
----------------

  NO   OCC          E(Eh)            E(eV) 
   0   2.0000     -19.212599      -522.8014 
   1   2.0000     -10.301919      -280.3295 
   2   2.0000     -10.286438      -279.9082 
   3   2.0000      -0.979277       -26.6475 
   4   2.0000      -0.742901       -20.2154 
   5   2.0000      -0.660412       -17.9707 
   6   2.0000      -0.522580       -14.2201 
   7   2.0000      -0.460456       -12.5296 
   8   2.0000      -0.435165       -11.8414 
   9   2.0000      -0.364950        -9.9308 
  10   2.0000      -0.306627        -8.3437 
  11   2.0000      -0.272973        -7.4280 
  12   0.0000      -0.057467        -1.5638 
  13   0.0000       0.048390         1.3168 
  14   0.0000       0.060140         1.6365 
  15   0.0000       0.091708         2.4955 
  16   0.0000       0.108767         2.9597 
  17   0.0000       0.141982         3.8635 
  18   0.0000       0.174936         4.7602 
  19   0.0000       0.193054         5.2533 
  20   0.0000       0.242059         6.5868 
  21   0.0000       0.259471         7.0606 
  22   0.0000       0.267945         7.2912 
  23   0.0000       0.286698         7.8015 
  24   0.0000       0.333574         9.0770 
  25   0.0000       0.386521        10.5178 
  26   0.0000       0.399274        10.8648 
  27   0.0000       0.412771        11.2321 
  28   0.0000       0.459748        12.5104 
  29   0.0000       0.483960        13.1692 
  30   0.0000       0.525435        14.2978 
  31   0.0000       0.544099        14.8057 
  32   0.0000       0.603206        16.4141 
  33   0.0000       0.655907        17.8481 
  34   0.0000       0.695365        18.9219 
  35   0.0000       0.733040        19.9470 
  36   0.0000       0.761373        20.7180 
  37   0.0000       0.805887        21.9293 
  38   0.0000       0.869163        23.6511 
  39   0.0000       0.918876        25.0039 
  40   0.0000       0.957662        26.0593 
  41   0.0000       1.004369        27.3303 
  42   0.0000       1.042920        28.3793 
  43   0.0000       1.061042        28.8724 
  44   0.0000       1.137655        30.9572 
  45   0.0000       1.335123        36.3305 
  46   0.0000       1.410393        38.3787 
  47   0.0000       1.436755        39.0961 
  48   0.0000       1.483817        40.3767 
  49   0.0000       1.507221        41.0136 
  50   0.0000       1.566750        42.6334 
  51   0.0000       1.590835        43.2888 
  52   0.0000       1.616092        43.9761 
  53   0.0000       1.709344        46.5136 
  54   0.0000       1.737359        47.2759 
  55   0.0000       1.763266        47.9809 
  56   0.0000       1.822541        49.5939 
  57   0.0000       1.865857        50.7725 
  58   0.0000       1.894491        51.5517 
  59   0.0000       1.979129        53.8548 
  60   0.0000       1.997929        54.3664 
  61   0.0000       2.093513        56.9674 
  62   0.0000       2.111082        57.4455 
  63   0.0000       2.200204        59.8706 
  64   0.0000       2.228178        60.6318 
  65   0.0000       2.363180        64.3054 
  66   0.0000       2.414970        65.7147 
  67   0.0000       2.443882        66.5014 
  68   0.0000       2.492227        67.8170 
  69   0.0000       2.539016        69.0901 
  70   0.0000       2.547123        69.3107 
  71   0.0000       2.608658        70.9852 
  72   0.0000       2.708834        73.7111 
  73   0.0000       2.731644        74.3318 
  74   0.0000       2.774619        75.5012 
  75   0.0000       2.803540        76.2882 
  76   0.0000       2.889338        78.6229 
  77   0.0000       2.938965        79.9733 
  78   0.0000       2.967651        80.7539 
  79   0.0000       3.001054        81.6628 
  80   0.0000       3.007631        81.8418 
  81   0.0000       3.039540        82.7101 
  82   0.0000       3.104453        84.4764 
  83   0.0000       3.180493        86.5456 
  84   0.0000       3.217925        87.5642 
  85   0.0000       3.268267        88.9341 
  86   0.0000       3.322160        90.4006 
  87   0.0000       3.342568        90.9559 
  88   0.0000       3.417861        93.0047 
  89   0.0000       3.528454        96.0141 
  90   0.0000       3.558817        96.8403 
  91   0.0000       3.600982        97.9877 
  92   0.0000       3.676227       100.0352 
  93   0.0000       3.753125       102.1277 
  94   0.0000       3.907240       106.3214 
  95   0.0000       4.001872       108.8965 
  96   0.0000       4.133065       112.4664 
  97   0.0000       4.256403       115.8226 
  98   0.0000       4.473456       121.7289 
  99   0.0000       4.533787       123.3706 
 100   0.0000       4.625302       125.8609 
 101   0.0000       4.838540       131.6634 
 102   0.0000       5.239112       142.5635 
 103   0.0000       5.241742       142.6350 
 104   0.0000       5.312286       144.5546 
 105   0.0000       5.400814       146.9636 
 106   0.0000       5.576672       151.7490 
 107   0.0000       5.600217       152.3896 
 108   0.0000       5.792990       157.6353 
 109   0.0000       6.405017       174.2894 
 110   0.0000       6.456226       175.6828 
 111   0.0000       6.704944       182.4508 
 112   0.0000       6.884017       187.3236 
 113   0.0000       7.038938       191.5392 
 114   0.0000      22.209085       604.3399 
 115   0.0000      22.252506       605.5215 
 116   0.0000      43.601160      1186.4479 

                    ********************************
                    * MULLIKEN POPULATION ANALYSIS *
                    ********************************

-----------------------
MULLIKEN ATOMIC CHARGES
-----------------------
   0 O :   -0.373191
   1 C :   -0.064799
   2 C :   -0.158176
   3 H :    0.146019
   4 H :    0.144780
   5 H :    0.150239
   6 H :    0.155127
Sum of atomic charges:   -0.0000000

--------------------------------
MULLIKEN REDUCED ORBITAL CHARGES
--------------------------------
  0 O s       :     3.919746  s :     3.919746
      pz      :     1.929458  p :     4.431408
      px      :     1.340305
      py      :     1.161645
      dz2     :     0.003153  d :     0.021053
      dxz     :     0.000635
      dyz     :     0.003531
      dx2y2   :     0.006429
      dxy     :     0.007305
      f0      :     0.000108  f :     0.000984
      f+1     :     0.000072
      f-1     :     0.000262
      f+2     :     0.000076
      f-2     :     0.000046
      f+3     :     0.000226
      f-3     :     0.000194
  1 C s       :     3.225438  s :     3.225438
      pz      :     1.076580  p :     2.714979
      px      :     0.909245
      py      :     0.729154
      dz2     :     0.013235  d :     0.115719
      dxz     :     0.017472
      dyz     :     0.030353
      dx2y2   :     0.027743
      dxy     :     0.026917
      f0      :     0.001451  f :     0.008662
      f+1     :     0.001323
      f-1     :     0.000458
      f+2     :     0.001715
      f-2     :     0.000306
      f+3     :     0.001494
      f-3     :     0.001916
  2 C s       :     3.288012  s :     3.288012
      pz      :     1.062430  p :     2.805762
      px      :     0.939028
      py      :     0.804304
      dz2     :     0.007793  d :     0.058828
      dxz     :     0.018503
      dyz     :     0.007703
      dx2y2   :     0.010759
      dxy     :     0.014069
      f0      :     0.000547  f :     0.005574
      f+1     :     0.001250
      f-1     :     0.000125
      f+2     :     0.000668
      f-2     :     0.000424
      f+3     :     0.001333
      f-3     :     0.001228
  3 H s       :     0.827955  s :     0.827955
      pz      :     0.011788  p :     0.026026
      px      :     0.007232
      py      :     0.007006
  4 H s       :     0.836760  s :     0.836760
      pz      :     0.010613  p :     0.018460
      px      :     0.004870
      py      :     0.002977
  5 H s       :     0.829035  s :     0.829035
      pz      :     0.010920  p :     0.020725
      px      :     0.006119
      py      :     0.003687
  6 H s       :     0.818965  s :     0.818965
      pz      :     0.011062  p :     0.025908
      px      :     0.008485
      py      :     0.006361


                     *******************************
                     * LOEWDIN POPULATION ANALYSIS *
                     *******************************

----------------------
LOEWDIN ATOMIC CHARGES
----------------------
   0 O :   -0.121571
   1 C :   -0.249902
   2 C :   -0.047171
   3 H :    0.079379
   4 H :    0.141578
   5 H :    0.139987
   6 H :    0.057701

-------------------------------
LOEWDIN REDUCED ORBITAL CHARGES
-------------------------------
  0 O s       :     3.621077  s :     3.621077
      pz      :     1.869204  p :     4.454420
      px      :     1.325114
      py      :     1.260102
      dz2     :     0.007119  d :     0.043699
      dxz     :     0.001499
      dyz     :     0.007724
      dx2y2   :     0.014356
      dxy     :     0.013000
      f0      :     0.000208  f :     0.002376
      f+1     :     0.000091
      f-1     :     0.000474
      f+2     :     0.000280
      f-2     :     0.000145
      f+3     :     0.000611
      f-3     :     0.000566
  1 C s       :     2.879880  s :     2.879880
      pz      :     1.087082  p :     2.899820
      px      :     1.013192
      py      :     0.799545
      dz2     :     0.062613  d :     0.418472
      dxz     :     0.083458
      dyz     :     0.071547
      dx2y2   :     0.111901
      dxy     :     0.088953
      f0      :     0.007555  f :     0.051731
      f+1     :     0.004343
      f-1     :     0.005452
      f+2     :     0.009307
      f-2     :     0.001115
      f+3     :     0.009470
      f-3     :     0.014489
  2 C s       :     2.889966  s :     2.889966
      pz      :     1.105699  p :     2.900484
      px      :     1.024646
      py      :     0.770139
      dz2     :     0.036691  d :     0.233434
      dxz     :     0.085676
      dyz     :     0.018555
      dx2y2   :     0.045396
      dxy     :     0.047116
      f0      :     0.002489  f :     0.023288
      f+1     :     0.003877
      f-1     :     0.001465
      f+2     :     0.003543
      f-2     :     0.001553
      f+3     :     0.005312
      f-3     :     0.005048
  3 H s       :     0.830523  s :     0.830523
      pz      :     0.042869  p :     0.090098
      px      :     0.024853
      py      :     0.022376
  4 H s       :     0.807363  s :     0.807363
      pz      :     0.030001  p :     0.051059
      px      :     0.012978
      py      :     0.008080
  5 H s       :     0.802278  s :     0.802278
      pz      :     0.031386  p :     0.057736
      px      :     0.016227
      py      :     0.010123
  6 H s       :     0.845063  s :     0.845063
      pz      :     0.044132  p :     0.097236
      px      :     0.030670
      py      :     0.022434


                      *****************************
                      * MAYER POPULATION ANALYSIS *
                      *****************************

  NA   - Mulliken gross atomic population
  ZA   - Total nuclear charge
  QA   - Mulliken gross atomic charge
  VA   - Mayer's total valence
  BVA  - Mayer's bonded valence
  FA   - Mayer's free valence

  ATOM       NA         ZA         QA         VA         BVA        FA
  0 O      8.3732     8.0000    -0.3732     1.8689     1.8689    -0.0000
  1 C      6.0648     6.0000    -0.0648     3.9171     3.9171    -0.0000
  2 C      6.1582     6.0000    -0.1582     3.9079     3.9079     0.0000
  3 H      0.8540     1.0000     0.1460     0.9962     0.9962    -0.0000
  4 H      0.8552     1.0000     0.1448     0.9659     0.9659     0.0000
  5 H      0.8498     1.0000     0.1502     0.9623     0.9623     0.0000
  6 H      0.8449     1.0000     0.1551     0.9504     0.9504     0.0000

  Mayer bond orders larger than 0.100000
B(  0-O ,  1-C ) :   0.9200 B(  0-O ,  2-C ) :   0.9389 B(  1-C ,  2-C ) :   1.0566 
B(  1-C ,  3-H ) :   0.9812 B(  1-C ,  4-H ) :   0.9466 B(  2-C ,  5-H ) :   0.9524 
B(  2-C ,  6-H ) :   0.9521 

-------
TIMINGS
-------

Total SCF time: 0 days 0 hours 0 min 2 sec 

Total time                  ....       2.870 sec
Sum of individual times     ....       2.589 sec  ( 90.2%)

Fock matrix formation       ....       2.319 sec  ( 80.8%)
  Split-RI-J                ....       0.242 sec  ( 10.4% of F)
  Chain of spheres X        ....       1.625 sec  ( 70.1% of F)
  XC integration            ....       0.428 sec  ( 18.5% of F)
    Basis function eval.    ....       0.116 sec  ( 27.0% of XC)
    Density eval.           ....       0.086 sec  ( 20.2% of XC)
    XC-Functional eval.     ....       0.025 sec  (  5.9% of XC)
    XC-Potential eval.      ....       0.149 sec  ( 34.7% of XC)
Diagonalization             ....       0.015 sec  (  0.5%)
Density matrix formation    ....       0.001 sec  (  0.0%)
Population analysis         ....       0.003 sec  (  0.1%)
Initial guess               ....       0.017 sec  (  0.6%)
Orbital Transformation      ....       0.000 sec  (  0.0%)
Orbital Orthonormalization  ....       0.000 sec  (  0.0%)
DIIS solution               ....       0.011 sec  (  0.4%)
SOSCF solution              ....       0.016 sec  (  0.5%)
Grid generation             ....       0.208 sec  (  7.2%)

Maximum memory used throughout the entire SCF-calculation: 61.0 MB


-------------------------------------------------------------------------------
                          DFT DISPERSION CORRECTION                            
                                                                               
                              DFTD3 V3.1  Rev 1                                
                          USING Becke-Johnson damping                          
-------------------------------------------------------------------------------
The PBE0 functional is recognized
Active option DFTDOPT                   ...         4   

molecular C6(AA) [au] = 384.999984 


            DFT-D V3
 parameters
 s6 scaling factor         :     1.0000 
 a1 scaling factor         :     0.4145 
 s8 scaling factor         :     1.2177 
 a2 scaling factor         :     4.8593 
 ad hoc parameters k1-k3   :    16.0000     1.3333    -4.0000 

 Edisp/kcal,au: -1.623828228375  -0.002587734723 
 E6   /kcal   :  -1.060392220 
 E8   /kcal   :  -0.563436008 
 % E8         :  34.698005521 

-------------------------   ----------------
Dispersion correction           -0.002587735
-------------------------   ----------------


-------------------------   --------------------
FINAL SINGLE POINT ENERGY      -153.550411132253
-------------------------   --------------------



           ************************************************************
           *        Program running with 8 parallel MPI-processes     *
           *              working on a common directory               *
           ************************************************************
------------------------------------------------------------------------------
                         ORCA SCF GRADIENT CALCULATION
------------------------------------------------------------------------------

 ... reading COSX grid (gridx3)
Gradient of the Kohn-Sham DFT energy:
Kohn-Sham wavefunction type      ... RKS
Hartree-Fock exchange scaling    ...    0.250
Number of operators              ...    1
Number of atoms                  ...    7
Basis set dimensions             ...  117
Integral neglect threshold       ... 2.5e-11
Integral primitive cutoff        ... 2.5e-12
SHARK Integral package           ... ON

Nuc. rep. gradient       (SHARK) ... done (  0.0 sec)
HCore & Overlap gradient (SHARK) ... done (  0.0 sec)
RI-J gradient            (SHARK) ... done (  0.1 sec)
COSX-gradient                    ... done (  0.3 sec)
Exchange-correlation gradient    ... done
Dispersion correction            ... done

------------------
CARTESIAN GRADIENT
------------------

   1   O   :   -0.060924758    0.082704646    0.007609184
   2   C   :   -0.106274719   -0.079824103    0.142181434
   3   C   :    0.181919897   -0.048592834    0.180132084
   4   H   :    0.065409442    0.033935230   -0.106537727
   5   H   :   -0.019087818    0.012778285   -0.045170279
   6   H   :    0.022079742   -0.014935023   -0.023970957
   7   H   :   -0.083010854    0.014029375   -0.154264453

Difference to translation invariance:
           :    0.0001109330    0.0000955762   -0.0000207132

Difference to rotation invariance:
           :    0.0001554197   -0.0000339057   -0.0001055533

Norm of the cartesian gradient     ...    0.4097728851
RMS gradient                       ...    0.0894197745
MAX gradient                       ...    0.1819198972

-------
TIMINGS
-------

Total SCF gradient time            ...        0.707 sec

One electron gradient       ....       0.010 sec  (  1.4%)
RI-J Coulomb gradient       ....       0.077 sec  ( 10.9%)
COSX gradient               ....       0.316 sec  ( 44.7%)
XC gradient                 ....       0.158 sec  ( 22.4%)

Maximum memory used throughout the entire SCFGRAD-calculation: 35.9 MB

                            ***************************************
                            *     ORCA property calculations      *
                            ***************************************

                                    ---------------------
                                    Active property flags
                                    ---------------------
   (+) Dipole Moment


------------------------------------------------------------------------------
                       ORCA ELECTRIC PROPERTIES CALCULATION
------------------------------------------------------------------------------

Dipole Moment Calculation                       ... on
Quadrupole Moment Calculation                   ... off
Polarizability Calculation                      ... off
GBWName                                         ... ox_gs_C_orca0007.gbw
Electron density                                ... ox_gs_C_orca0007.scfp
The origin for moment calculation is the CENTER OF MASS  = (-0.338710,  0.004461  0.096384)

-------------
DIPOLE MOMENT
-------------
                                X             Y             Z
Electronic contribution:     -0.36975       1.26916       0.33984
Nuclear contribution   :      0.65136      -2.34813      -0.36539
                        -----------------------------------------
Total Dipole Moment    :      0.28161      -1.07897      -0.02555
                        -----------------------------------------
Magnitude (a.u.)       :      1.11541
Magnitude (Debye)      :      2.83515



--------------------
Rotational spectrum 
--------------------
 
Rotational constants in cm-1:     0.823690     0.511502     0.360684 
Rotational constants in MHz : 24693.608852 15334.449219 10813.040003 

 Dipole components along the rotational axes: 
x,y,z [a.u.] :     0.928212    -0.618300     0.016436 
x,y,z [Debye]:     2.359327    -1.571593     0.041778 

 

Timings for individual modules:

Sum of individual times         ...        4.243 sec (=   0.071 min)
GTO integral calculation        ...        0.293 sec (=   0.005 min)   6.9 %
SCF iterations                  ...        3.034 sec (=   0.051 min)  71.5 %
SCF Gradient evaluation         ...        0.915 sec (=   0.015 min)  21.6 %
                             ****ORCA TERMINATED NORMALLY****
TOTAL RUN TIME: 0 days 0 hours 0 minutes 4 seconds 554 msec
