
                                 *****************
                                 * O   R   C   A *
                                 *****************

                                            #,                                       
                                            ###                                      
                                            ####                                     
                                            #####                                    
                                            ######                                   
                                           ########,                                 
                                     ,,################,,,,,                         
                               ,,#################################,,                 
                          ,,##########################################,,             
                       ,#########################################, ''#####,          
                    ,#############################################,,   '####,        
                  ,##################################################,,,,####,       
                ,###########''''           ''''###############################       
              ,#####''   ,,,,##########,,,,          '''####'''          '####       
            ,##' ,,,,###########################,,,                        '##       
           ' ,,###''''                  '''############,,,                           
         ,,##''                                '''############,,,,        ,,,,,,###''
      ,#''                                            '''#######################'''  
     '                                                          ''''####''''         
             ,#######,   #######,   ,#######,      ##                                
            ,#'     '#,  ##    ##  ,#'     '#,    #''#        ######   ,####,        
            ##       ##  ##   ,#'  ##            #'  '#       #        #'  '#        
            ##       ##  #######   ##           ,######,      #####,   #    #        
            '#,     ,#'  ##    ##  '#,     ,#' ,#      #,         ##   #,  ,#        
             '#######'   ##     ##  '#######'  #'      '#     #####' # '####'        



                  #######################################################
                  #                        -***-                        #
                  #          Department of theory and spectroscopy      #
                  #    Directorship and core code : Frank Neese         #
                  #        Max Planck Institute fuer Kohlenforschung    #
                  #                Kaiser Wilhelm Platz 1               #
                  #                 D-45470 Muelheim/Ruhr               #
                  #                      Germany                        #
                  #                                                     #
                  #                  All rights reserved                #
                  #                        -***-                        #
                  #######################################################


                         Program Version 5.0.2 -  RELEASE  -


 With contributions from (in alphabetic order):
   Daniel Aravena         : Magnetic Suceptibility
   Michael Atanasov       : Ab Initio Ligand Field Theory (pilot matlab implementation)
   Alexander A. Auer      : GIAO ZORA, VPT2 properties, NMR spectrum
   Ute Becker             : Parallelization
   Giovanni Bistoni       : ED, misc. LED, open-shell LED, HFLD
   Martin Brehm           : Molecular dynamics
   Dmytro Bykov           : SCF Hessian
   Vijay G. Chilkuri      : MRCI spin determinant printing, contributions to CSF-ICE
   Dipayan Datta          : RHF DLPNO-CCSD density
   Achintya Kumar Dutta   : EOM-CC, STEOM-CC
   Dmitry Ganyushin       : Spin-Orbit,Spin-Spin,Magnetic field MRCI
   Miquel Garcia          : C-PCM and meta-GGA Hessian, CC/C-PCM, Gaussian charge scheme
   Yang Guo               : DLPNO-NEVPT2, F12-NEVPT2, CIM, IAO-localization
   Andreas Hansen         : Spin unrestricted coupled pair/coupled cluster methods
   Benjamin Helmich-Paris : MC-RPA, TRAH-SCF, COSX integrals
   Lee Huntington         : MR-EOM, pCC
   Robert Izsak           : Overlap fitted RIJCOSX, COSX-SCS-MP3, EOM
   Marcus Kettner         : VPT2
   Christian Kollmar      : KDIIS, OOCD, Brueckner-CCSD(T), CCSD density, CASPT2, CASPT2-K
   Simone Kossmann        : Meta GGA functionals, TD-DFT gradient, OOMP2, MP2 Hessian
   Martin Krupicka        : Initial AUTO-CI
   Lucas Lang             : DCDCAS
   Marvin Lechner         : AUTO-CI (C++ implementation), FIC-MRCC
   Dagmar Lenk            : GEPOL surface, SMD
   Dimitrios Liakos       : Extrapolation schemes; Compound Job, initial MDCI parallelization
   Dimitrios Manganas     : Further ROCIS development; embedding schemes
   Dimitrios Pantazis     : SARC Basis sets
   Anastasios Papadopoulos: AUTO-CI, single reference methods and gradients
   Taras Petrenko         : DFT Hessian,TD-DFT gradient, ASA, ECA, R-Raman, ABS, FL, XAS/XES, NRVS
   Peter Pinski           : DLPNO-MP2, DLPNO-MP2 Gradient
   Christoph Reimann      : Effective Core Potentials
   Marius Retegan         : Local ZFS, SOC
   Christoph Riplinger    : Optimizer, TS searches, QM/MM, DLPNO-CCSD(T), (RO)-DLPNO pert. Triples
   Tobias Risthaus        : Range-separated hybrids, TD-DFT gradient, RPA, STAB
   Michael Roemelt        : Original ROCIS implementation
   Masaaki Saitow         : Open-shell DLPNO-CCSD energy and density
   Barbara Sandhoefer     : DKH picture change effects
   Avijit Sen             : IP-ROCIS
   Kantharuban Sivalingam : CASSCF convergence, NEVPT2, FIC-MRCI
   Bernardo de Souza      : ESD, SOC TD-DFT
   Georgi Stoychev        : AutoAux, RI-MP2 NMR, DLPNO-MP2 response
   Willem Van den Heuvel  : Paramagnetic NMR
   Boris Wezisla          : Elementary symmetry handling
   Frank Wennmohs         : Technical directorship


 We gratefully acknowledge several colleagues who have allowed us to
 interface, adapt or use parts of their codes:
   Stefan Grimme, W. Hujo, H. Kruse, P. Pracht,  : VdW corrections, initial TS optimization,
                  C. Bannwarth, S. Ehlert          DFT functionals, gCP, sTDA/sTD-DF
   Ed Valeev, F. Pavosevic, A. Kumar             : LibInt (2-el integral package), F12 methods
   Garnet Chan, S. Sharma, J. Yang, R. Olivares  : DMRG
   Ulf Ekstrom                                   : XCFun DFT Library
   Mihaly Kallay                                 : mrcc  (arbitrary order and MRCC methods)
   Jiri Pittner, Ondrej Demel                    : Mk-CCSD
   Frank Weinhold                                : gennbo (NPA and NBO analysis)
   Christopher J. Cramer and Donald G. Truhlar   : smd solvation model
   Lars Goerigk                                  : TD-DFT with DH, B97 family of functionals
   V. Asgeirsson, H. Jonsson                     : NEB implementation
   FAccTs GmbH                                   : IRC, NEB, NEB-TS, DLPNO-Multilevel, CI-OPT
                                                   MM, QMMM, 2- and 3-layer-ONIOM, Crystal-QMMM,
                                                   LR-CPCM, SF, NACMEs, symmetry and pop. for TD-DFT,
                                                   nearIR, NL-DFT gradient (VV10), updates on ESD,
                                                   ML-optimized integration grids
   S Lehtola, MJT Oliveira, MAL Marques          : LibXC Library
   Liviu Ungur et al                             : ANISO software


 Your calculation uses the libint2 library for the computation of 2-el integrals
 For citations please refer to: http://libint.valeyev.net

 Your ORCA version has been built with support for libXC version: 5.1.0
 For citations please refer to: https://tddft.org/programs/libxc/

 This ORCA versions uses:
   CBLAS   interface :  Fast vector & matrix operations
   LAPACKE interface :  Fast linear algebra routines
   SCALAPACK package :  Parallel linear algebra routines
   Shared memory     :  Shared parallel matrices
   BLAS/LAPACK       :  OpenBLAS 0.3.15  USE64BITINT DYNAMIC_ARCH NO_AFFINITY SkylakeX SINGLE_THREADED
        Core in use  :  SkylakeX
   Copyright (c) 2011-2014, The OpenBLAS Project


Your calculation utilizes the atom-pairwise dispersion correction
with the Becke-Johnson damping scheme (D3BJ)
Cite in your paper:
S.Grimme, S.Ehrlich, L.Goerigk, J Comput Chem, (2011), 32, 1456–1465 
S.Grimme, J.Antony, S.Ehrlich and H.Krieg, J.Chem.Phys., 132, (2010), 154104 
   

================================================================================

----- Orbital basis set information -----
Your calculation utilizes the basis: def2-TZVP
   F. Weigend and R. Ahlrichs, Phys. Chem. Chem. Phys. 7, 3297 (2005).

----- AuxJ basis set information -----
Your calculation utilizes the auxiliary basis: def2/J
   F. Weigend, Phys. Chem. Chem. Phys. 8, 1057 (2006).

================================================================================
                                        WARNINGS
                       Please study these warnings very carefully!
================================================================================


INFO   : the flag for use of the SHARK integral package has been found!

================================================================================
                                       INPUT FILE
================================================================================
NAME = ox_gs_G_orca0000.inp
|  1> ! engrad PBE0 D3BJ def2-TZVP  
|  2> %pal nprocs 8 end
|  3> %maxcore 3000
|  4>  
|  5> *xyz 0 1 
|  6> O   -1.4723589464511986 0.7783770868829729 0.015970679622531778
|  7> C   -0.8421561435616819 -0.5158931732219615 0.09749903664330105
|  8> C   0.7006990363189491 -0.4892073693935083 0.011226929036626919
|  9> H   -1.2833918157596904 -0.6379956362850662 0.8856687028344299
| 10> H   -1.2046547676911932 -0.640823068716173 -0.9397871732847044
| 11> H   1.3325087551407775 -0.6792572011461437 -0.911989009236759
| 12> H   1.3124779894035685 -0.6686956876744539 0.9695229422665195
| 13> *
| 14> 
| 15>                          ****END OF INPUT****
================================================================================

                     *******************************
                     * Energy+Gradient Calculation *
                     *******************************

---------------------------------
CARTESIAN COORDINATES (ANGSTROEM)
---------------------------------
  O     -1.472359    0.778377    0.015971
  C     -0.842156   -0.515893    0.097499
  C      0.700699   -0.489207    0.011227
  H     -1.283392   -0.637996    0.885669
  H     -1.204655   -0.640823   -0.939787
  H      1.332509   -0.679257   -0.911989
  H      1.312478   -0.668696    0.969523

----------------------------
CARTESIAN COORDINATES (A.U.)
----------------------------
  NO LB      ZA    FRAG     MASS         X           Y           Z
   0 O     8.0000    0    15.999   -2.782355    1.470920    0.030180
   1 C     6.0000    0    12.011   -1.591444   -0.974897    0.184246
   2 C     6.0000    0    12.011    1.324129   -0.924468    0.021216
   3 H     1.0000    0     1.008   -2.425259   -1.205637    1.673671
   4 H     1.0000    0     1.008   -2.276468   -1.210980   -1.775940
   5 H     1.0000    0     1.008    2.518077   -1.283610   -1.723409
   6 H     1.0000    0     1.008    2.480224   -1.263652    1.832133

--------------------------------
INTERNAL COORDINATES (ANGSTROEM)
--------------------------------
 O      0   0   0     0.000000000000     0.00000000     0.00000000
 C      1   0   0     1.441852264263     0.00000000     0.00000000
 C      2   1   0     1.545495750483   114.68795010     0.00000000
 H      2   1   3     0.911487439634    87.56762514   124.64881813
 H      2   1   3     1.105882187482    84.55432701   254.79765667
 H      3   2   1     1.134737911603   126.75267812   262.28133507
 H      3   2   1     1.151008598060   118.77945123   105.90840669

---------------------------
INTERNAL COORDINATES (A.U.)
---------------------------
 O      0   0   0     0.000000000000     0.00000000     0.00000000
 C      1   0   0     2.724705905031     0.00000000     0.00000000
 C      2   1   0     2.920563709552   114.68795010     0.00000000
 H      2   1   3     1.722461635417    87.56762514   124.64881813
 H      2   1   3     2.089814470723    84.55432701   254.79765667
 H      3   2   1     2.144343886707   126.75267812   262.28133507
 H      3   2   1     2.175091028123   118.77945123   105.90840669

---------------------
BASIS SET INFORMATION
---------------------
There are 3 groups of distinct atoms

 Group   1 Type O   : 11s6p2d1f contracted to 5s3p2d1f pattern {62111/411/11/1}
 Group   2 Type C   : 11s6p2d1f contracted to 5s3p2d1f pattern {62111/411/11/1}
 Group   3 Type H   : 5s1p contracted to 3s1p pattern {311/1}

Atom   0O    basis set group =>   1
Atom   1C    basis set group =>   2
Atom   2C    basis set group =>   2
Atom   3H    basis set group =>   3
Atom   4H    basis set group =>   3
Atom   5H    basis set group =>   3
Atom   6H    basis set group =>   3
---------------------------------
AUXILIARY/J BASIS SET INFORMATION
---------------------------------
There are 3 groups of distinct atoms

 Group   1 Type O   : 12s5p4d2f1g contracted to 6s4p3d1f1g pattern {711111/2111/211/2/1}
 Group   2 Type C   : 12s5p4d2f1g contracted to 6s4p3d1f1g pattern {711111/2111/211/2/1}
 Group   3 Type H   : 5s2p1d contracted to 3s1p1d pattern {311/2/1}

Atom   0O    basis set group =>   1
Atom   1C    basis set group =>   2
Atom   2C    basis set group =>   2
Atom   3H    basis set group =>   3
Atom   4H    basis set group =>   3
Atom   5H    basis set group =>   3
Atom   6H    basis set group =>   3


           ************************************************************
           *        Program running with 8 parallel MPI-processes     *
           *              working on a common directory               *
           ************************************************************
------------------------------------------------------------------------------
                           ORCA GTO INTEGRAL CALCULATION
                           -- RI-GTO INTEGRALS CHOSEN --
------------------------------------------------------------------------------
------------------------------------------------------------------------------
                   ___                                                        
                  /   \      - P O W E R E D   B Y -                         
                 /     \                                                     
                 |  |  |   _    _      __       _____    __    __             
                 |  |  |  | |  | |    /  \     |  _  \  |  |  /  |          
                  \  \/   | |  | |   /    \    | | | |  |  | /  /          
                 / \  \   | |__| |  /  /\  \   | |_| |  |  |/  /          
                |  |  |   |  __  | /  /__\  \  |    /   |      \           
                |  |  |   | |  | | |   __   |  |    \   |  |\   \          
                \     /   | |  | | |  |  |  |  | |\  \  |  | \   \       
                 \___/    |_|  |_| |__|  |__|  |_| \__\ |__|  \__/        
                                                                              
                      - O R C A' S   B I G   F R I E N D -                    
                                      &                                       
                       - I N T E G R A L  F E E D E R -                       
                                                                              
 v1 FN, 2020, v2 2021                                                         
------------------------------------------------------------------------------


Reading SHARK input file ox_gs_G_orca0000.SHARKINP.tmp ... ok
----------------------
SHARK INTEGRAL PACKAGE
----------------------

Number of atoms                             ...      7
Number of basis functions                   ...    117
Number of shells                            ...     49
Maximum angular momentum                    ...      3
Integral batch strategy                     ... SHARK/LIBINT Hybrid
RI-J (if used) integral strategy            ... SPLIT-RIJ (Revised 2003 algorithm where possible)
Printlevel                                  ...      1
Contraction scheme used                     ... SEGMENTED contraction
Coulomb Range Separation                    ... NOT USED
Exchange Range Separation                   ... NOT USED
Finite Nucleus Model                        ... NOT USED
Auxiliary Coulomb fitting basis             ... AVAILABLE
   # of basis functions in Aux-J            ...    191
   # of shells in Aux-J                     ...     65
   Maximum angular momentum in Aux-J        ...      4
Auxiliary J/K fitting basis                 ... NOT available
Auxiliary Correlation fitting basis         ... NOT available
Auxiliary 'external' fitting basis          ... NOT available
Integral threshold                          ...     2.500000e-11
Primitive cut-off                           ...     2.500000e-12
Primitive pair pre-selection threshold      ...     2.500000e-12

Calculating pre-screening integrals         ... done (  0.0 sec) Dimension = 49
Organizing shell pair data                  ... done (  0.0 sec)
Shell pair information
Total number of shell pairs                 ...      1225
Shell pairs after pre-screening             ...      1208
Total number of primitive shell pairs       ...      3648
Primitive shell pairs kept                  ...      3053
          la=0 lb=0:    367 shell pairs
          la=1 lb=0:    348 shell pairs
          la=1 lb=1:     91 shell pairs
          la=2 lb=0:    159 shell pairs
          la=2 lb=1:     78 shell pairs
          la=2 lb=2:     21 shell pairs
          la=3 lb=0:     81 shell pairs
          la=3 lb=1:     39 shell pairs
          la=3 lb=2:     18 shell pairs
          la=3 lb=3:      6 shell pairs

Calculating one electron integrals          ... done (  0.0 sec)
Calculating RI/J V-Matrix + Cholesky decomp.... done (  0.0 sec)
Calculating Nuclear repulsion               ... done (  0.0 sec) ENN=     66.451231432222 Eh

SHARK setup successfully completed in   0.1 seconds

Maximum memory used throughout the entire GTOINT-calculation: 14.9 MB


           ************************************************************
           *        Program running with 8 parallel MPI-processes     *
           *              working on a common directory               *
           ************************************************************
-------------------------------------------------------------------------------
                                 ORCA SCF
-------------------------------------------------------------------------------

------------
SCF SETTINGS
------------
Hamiltonian:
 Density Functional     Method          .... DFT(GTOs)
 Exchange Functional    Exchange        .... PBE
   PBE kappa parameter   XKappa         ....  0.804000
   PBE mue parameter    XMuePBE         ....  0.219520
 Correlation Functional Correlation     .... PBE
   PBE beta parameter  CBetaPBE         ....  0.066725
 LDA part of GGA corr.  LDAOpt          .... PW91-LDA
 Gradients option       PostSCFGGA      .... off
 Hybrid DFT is turned on
   Fraction HF Exchange ScalHFX         ....  0.250000
   Scaling of DF-GGA-X  ScalDFX         ....  0.750000
   Scaling of DF-GGA-C  ScalDFC         ....  1.000000
   Scaling of DF-LDA-C  ScalLDAC        ....  1.000000
   Perturbative correction              ....  0.000000
   Density functional embedding theory  .... OFF
   NL short-range parameter             ....  6.900000
 RI-approximation to the Coulomb term is turned on
   Number of AuxJ basis functions       .... 191
   RIJ-COSX (HFX calculated with COS-X)).... on


General Settings:
 Integral files         IntName         .... ox_gs_G_orca0000
 Hartree-Fock type      HFTyp           .... RHF
 Total Charge           Charge          ....    0
 Multiplicity           Mult            ....    1
 Number of Electrons    NEL             ....   24
 Basis Dimension        Dim             ....  117
 Nuclear Repulsion      ENuc            ....     66.4512314322 Eh

Convergence Acceleration:
 DIIS                   CNVDIIS         .... on
   Start iteration      DIISMaxIt       ....    12
   Startup error        DIISStart       ....  0.200000
   # of expansion vecs  DIISMaxEq       ....     5
   Bias factor          DIISBfac        ....   1.050
   Max. coefficient     DIISMaxC        ....  10.000
 Trust-Rad. Augm. Hess. CNVTRAH         .... auto
   Auto Start mean grad. ratio tolernc. ....  1.125000
   Auto Start start iteration           ....    20
   Auto Start num. interpolation iter.  ....    10
   Max. Number of Micro iterations      ....    16
   Max. Number of Macro iterations      .... Maxiter - #DIIS iter
   Number of Davidson start vectors     ....     2
   Converg. threshold I  (grad. norm)   ....   1.000e-05
   Converg. threshold II (energy diff.) ....   1.000e-08
   Grad. Scal. Fac. for Micro threshold ....   0.100
   Minimum threshold for Micro iter.    ....   0.010
   NR start threshold (gradient norm)   ....   0.001
   Initial trust radius                 ....   0.400
   Minimum AH scaling param. (alpha)    ....   1.000
   Maximum AH scaling param. (alpha)    .... 1000.000
   Orbital update algorithm             .... Taylor
   White noise on init. David. guess    .... on
   Maximum white noise                  ....   0.010
   Quad. conv. algorithm                .... NR
 SOSCF                  CNVSOSCF        .... on
   Start iteration      SOSCFMaxIt      ....   150
   Startup grad/error   SOSCFStart      ....  0.003300
 Level Shifting         CNVShift        .... on
   Level shift para.    LevelShift      ....    0.2500
   Turn off err/grad.   ShiftErr        ....    0.0010
 Zerner damping         CNVZerner       .... off
 Static damping         CNVDamp         .... on
   Fraction old density DampFac         ....    0.7000
   Max. Damping (<1)    DampMax         ....    0.9800
   Min. Damping (>=0)   DampMin         ....    0.0000
   Turn off err/grad.   DampErr         ....    0.1000
 Fernandez-Rico         CNVRico         .... off

SCF Procedure:
 Maximum # iterations   MaxIter         ....   125
 SCF integral mode      SCFMode         .... Direct
   Integral package                     .... SHARK and LIBINT hybrid scheme
 Reset frequency        DirectResetFreq ....    20
 Integral Threshold     Thresh          ....  2.500e-11 Eh
 Primitive CutOff       TCut            ....  2.500e-12 Eh

Convergence Tolerance:
 Convergence Check Mode ConvCheckMode   .... Total+1el-Energy
 Convergence forced     ConvForced      .... 0
 Energy Change          TolE            ....  1.000e-08 Eh
 1-El. energy change                    ....  1.000e-05 Eh
 Orbital Gradient       TolG            ....  1.000e-05
 Orbital Rotation angle TolX            ....  1.000e-05
 DIIS Error             TolErr          ....  5.000e-07


Diagonalization of the overlap matrix:
Smallest eigenvalue                        ... 7.604e-04
Time for diagonalization                   ...    0.001 sec
Threshold for overlap eigenvalues          ... 1.000e-08
Number of eigenvalues below threshold      ... 0
Time for construction of square roots      ...    0.001 sec
Total time needed                          ...    0.003 sec

Time for model grid setup =    0.022 sec

------------------------------
INITIAL GUESS: MODEL POTENTIAL
------------------------------
Loading Hartree-Fock densities                     ... done
Calculating cut-offs                               ... done
Initializing the effective Hamiltonian             ... done
Setting up the integral package (SHARK)            ... done
Starting the Coulomb interaction                   ... done (   0.0 sec)
Reading the grid                                   ... done
Mapping shells                                     ... done
Starting the XC term evaluation                    ... done (   0.0 sec)
  promolecular density results
     # of electrons  =     23.997342427
     EX              =    -19.447044221
     EC              =     -0.762589719
     EX+EC           =    -20.209633940
Transforming the Hamiltonian                       ... done (   0.0 sec)
Diagonalizing the Hamiltonian                      ... done (   0.0 sec)
Back transforming the eigenvectors                 ... done (   0.0 sec)
Now organizing SCF variables                       ... done
                      ------------------
                      INITIAL GUESS DONE (   0.0 sec)
                      ------------------
-------------------
DFT GRID GENERATION
-------------------

General Integration Accuracy     IntAcc      ... 4.388
Radial Grid Type                 RadialGrid  ... OptM3 with GC (2021)
Angular Grid (max. ang.)         AngularGrid ... 4 (Lebedev-302)
Angular grid pruning method      GridPruning ... 4 (adaptive)
Weight generation scheme         WeightScheme... Becke
Basis function cutoff            BFCut       ... 1.0000e-11
Integration weight cutoff        WCut        ... 1.0000e-14
Angular grids for H and He will be reduced by one unit
Partially contracted basis set               ... off
Rotationally invariant grid construction     ... off

Total number of grid points                  ...    31348
Total number of batches                      ...      493
Average number of points per batch           ...       63
Average number of grid points per atom       ...     4478
Time for grid setup =    0.112 sec

--------------------
COSX GRID GENERATION
--------------------

GRIDX 1
-------
General Integration Accuracy     IntAcc      ... 3.816
Radial Grid Type                 RadialGrid  ... OptM3 with GC (2021)
Angular Grid (max. ang.)         AngularGrid ... 1 (Lebedev-50)
Angular grid pruning method      GridPruning ... 4 (adaptive)
Weight generation scheme         WeightScheme... Becke
Basis function cutoff            BFCut       ... 1.0000e-11
Integration weight cutoff        WCut        ... 1.0000e-14
Angular grids for H and He will be reduced by one unit
Partially contracted basis set               ... on
Rotationally invariant grid construction     ... off

Total number of grid points                  ...     4045
Total number of batches                      ...       66
Average number of points per batch           ...       61
Average number of grid points per atom       ...      578
UseSFitting                                  ... on

GRIDX 2
-------
General Integration Accuracy     IntAcc      ... 4.020
Radial Grid Type                 RadialGrid  ... OptM3 with GC (2021)
Angular Grid (max. ang.)         AngularGrid ... 2 (Lebedev-110)
Angular grid pruning method      GridPruning ... 4 (adaptive)
Weight generation scheme         WeightScheme... Becke
Basis function cutoff            BFCut       ... 1.0000e-11
Integration weight cutoff        WCut        ... 1.0000e-14
Angular grids for H and He will be reduced by one unit
Partially contracted basis set               ... on
Rotationally invariant grid construction     ... off

Total number of grid points                  ...     8748
Total number of batches                      ...      140
Average number of points per batch           ...       62
Average number of grid points per atom       ...     1250
UseSFitting                                  ... on

GRIDX 3
-------
General Integration Accuracy     IntAcc      ... 4.338
Radial Grid Type                 RadialGrid  ... OptM3 with GC (2021)
Angular Grid (max. ang.)         AngularGrid ... 3 (Lebedev-194)
Angular grid pruning method      GridPruning ... 4 (adaptive)
Weight generation scheme         WeightScheme... Becke
Basis function cutoff            BFCut       ... 1.0000e-11
Integration weight cutoff        WCut        ... 1.0000e-14
Angular grids for H and He will be reduced by one unit
Partially contracted basis set               ... on
Rotationally invariant grid construction     ... off

Total number of grid points                  ...    19289
Total number of batches                      ...      305
Average number of points per batch           ...       63
Average number of grid points per atom       ...     2756
UseSFitting                                  ... on

Time for X-Grid setup             =    0.073 sec

--------------
SCF ITERATIONS
--------------
ITER       Energy         Delta-E        Max-DP      RMS-DP      [F,P]     Damp
               ***  Starting incremental Fock matrix formation  ***
  0   -153.1692836105   0.000000000000 0.23450856  0.00599820  0.3844263 0.7000
  1   -153.3114486877  -0.142165077169 0.09075064  0.00240051  0.0892568 0.7000
                               ***Turning on DIIS***
  2   -153.2769855917   0.034463096014 0.06017282  0.00177045  0.1355360 0.7000
  3   -153.3413778998  -0.064392308153 0.15441794  0.00424190  0.0449208 0.0000
  4   -153.4023955251  -0.061017625300 0.00749103  0.00024088  0.1476655 0.7000
  5   -153.4067892232  -0.004393698123 0.00859752  0.00028946  0.1379732 0.7000
  6   -153.4101292499  -0.003340026686 0.00791972  0.00028059  0.1294158 0.7000
  7   -153.4125144946  -0.002385244621 0.00689350  0.00025247  0.1224965 0.7000
  8   -153.4146604417  -0.002145947121 0.02614395  0.00096817  0.1159679 0.7000
  9   -153.4333462892  -0.018685847479 0.03732204  0.00153576  0.0396738 0.0000
 10   -153.4341112720  -0.000764982802 0.01976088  0.00058106  0.0788684 0.0000
 11   -153.4417622325  -0.007650960514 0.01034452  0.00032930  0.0422573 0.0000
 12   -153.4439494079  -0.002187175415 0.00500166  0.00018823  0.0218793 0.0000
 13   -153.4445905878  -0.000641179956 0.00260566  0.00010320  0.0103433 0.0000
 14   -153.4447500490  -0.000159461110 0.00155609  0.00005805  0.0042006 0.0000
                      *** Initiating the SOSCF procedure ***
                           *** Shutting down DIIS ***
                      *** Re-Reading the Fockian *** 
                      *** Removing any level shift *** 
ITER      Energy       Delta-E        Grad      Rot      Max-DP    RMS-DP
 15   -153.44478981  -0.0000397619  0.000881  0.000881  0.001263  0.000039
               *** Restarting incremental Fock matrix formation ***
 16   -153.44480997  -0.0000201589  0.000556  0.004320  0.001782  0.000078
 17   -153.44482769  -0.0000177232  0.000303  0.007683  0.002936  0.000106
 18   -153.44482524   0.0000024520  0.001111  0.004088  0.001477  0.000076
 19   -153.44481561   0.0000096359  0.001319  0.004918  0.001623  0.000086
 20   -153.44483204  -0.0000164358  0.000474  0.002068  0.000605  0.000029
 21   -153.44483506  -0.0000030199  0.000216  0.000915  0.000280  0.000015
 22   -153.44483583  -0.0000007741  0.000045  0.000552  0.000200  0.000008
 23   -153.44483598  -0.0000001457  0.000036  0.001347  0.000400  0.000016
 24   -153.44483610  -0.0000001170  0.000015  0.000117  0.000027  0.000001
 25   -153.44483610  -0.0000000040  0.000005  0.000016  0.000009  0.000000
                  ***Gradient check signals convergence***
              ***Rediagonalizing the Fockian in SOSCF/NRSCF***

               *****************************************************
               *                     SUCCESS                       *
               *           SCF CONVERGED AFTER  26 CYCLES          *
               *****************************************************

Old exchange energy                            =     -4.946875342 Eh
New exchange energy                            =     -4.946888715 Eh
Exchange energy change after final integration =     -0.000013372 Eh
Total energy after final integration           =   -153.444849475 Eh
Final COS-X integration done in                =     0.257 sec

----------------
TOTAL SCF ENERGY
----------------

Total Energy       :         -153.44484948 Eh           -4175.44663 eV

Components:
Nuclear Repulsion  :           66.45123143 Eh            1808.22994 eV
Electronic Energy  :         -219.89608091 Eh           -5983.67657 eV
One Electron Energy:         -339.72541345 Eh           -9244.39848 eV
Two Electron Energy:          119.82933254 Eh            3260.72191 eV
Max COSX asymmetry :            0.00000257 Eh               0.00007 eV

Virial components:
Potential Energy   :         -306.35023214 Eh           -8336.21362 eV
Kinetic Energy     :          152.90538266 Eh            4160.76699 eV
Virial Ratio       :            2.00352811


DFT components:
N(Alpha)           :       11.999989885430 electrons
N(Beta)            :       11.999989885430 electrons
N(Total)           :       23.999979770861 electrons
E(X)               :      -14.878054476430 Eh       
E(C)               :       -0.769077850319 Eh       
E(XC)              :      -15.647132326749 Eh       
DFET-embed. en.    :        0.000000000000 Eh       

---------------
SCF CONVERGENCE
---------------

  Last Energy change         ...   -1.1859e-09  Tolerance :   1.0000e-08
  Last MAX-Density change    ...    4.4409e-16  Tolerance :   1.0000e-07
  Last RMS-Density change    ...    1.6951e-17  Tolerance :   5.0000e-09
  Last Orbital Gradient      ...    1.1577e-06  Tolerance :   1.0000e-05
  Last Orbital Rotation      ...    6.7922e-06  Tolerance :   1.0000e-05

             **** THE GBW FILE WAS UPDATED (ox_gs_G_orca0000.gbw) ****
             **** DENSITY ox_gs_G_orca0000.scfp WAS UPDATED ****
             **** ENERGY FILE WAS UPDATED (ox_gs_G_orca0000.en.tmp) ****
             **** THE GBW FILE WAS UPDATED (ox_gs_G_orca0000.gbw) ****
             **** DENSITY ox_gs_G_orca0000.scfp WAS UPDATED ****
----------------
ORBITAL ENERGIES
----------------

  NO   OCC          E(Eh)            E(eV) 
   0   2.0000     -19.170698      -521.6612 
   1   2.0000     -10.324644      -280.9478 
   2   2.0000     -10.272253      -279.5222 
   3   2.0000      -0.980662       -26.6852 
   4   2.0000      -0.760920       -20.7057 
   5   2.0000      -0.633879       -17.2487 
   6   2.0000      -0.540009       -14.6944 
   7   2.0000      -0.471603       -12.8330 
   8   2.0000      -0.432648       -11.7730 
   9   2.0000      -0.378550       -10.3009 
  10   2.0000      -0.249116        -6.7788 
  11   2.0000      -0.230338        -6.2678 
  12   0.0000      -0.163109        -4.4384 
  13   0.0000       0.038175         1.0388 
  14   0.0000       0.075320         2.0496 
  15   0.0000       0.085199         2.3184 
  16   0.0000       0.120926         3.2906 
  17   0.0000       0.146294         3.9809 
  18   0.0000       0.186061         5.0630 
  19   0.0000       0.205281         5.5860 
  20   0.0000       0.228731         6.2241 
  21   0.0000       0.233414         6.3515 
  22   0.0000       0.246851         6.7172 
  23   0.0000       0.324906         8.8411 
  24   0.0000       0.334235         9.0950 
  25   0.0000       0.390276        10.6199 
  26   0.0000       0.395733        10.7684 
  27   0.0000       0.427039        11.6203 
  28   0.0000       0.439244        11.9524 
  29   0.0000       0.460026        12.5179 
  30   0.0000       0.510256        13.8848 
  31   0.0000       0.534459        14.5434 
  32   0.0000       0.577962        15.7271 
  33   0.0000       0.620948        16.8969 
  34   0.0000       0.656897        17.8751 
  35   0.0000       0.744671        20.2635 
  36   0.0000       0.767552        20.8862 
  37   0.0000       0.798655        21.7325 
  38   0.0000       0.897179        24.4135 
  39   0.0000       0.909829        24.7577 
  40   0.0000       0.935200        25.4481 
  41   0.0000       1.010694        27.5024 
  42   0.0000       1.058926        28.8148 
  43   0.0000       1.095955        29.8224 
  44   0.0000       1.187901        32.3244 
  45   0.0000       1.343486        36.5581 
  46   0.0000       1.417002        38.5586 
  47   0.0000       1.447420        39.3863 
  48   0.0000       1.487755        40.4839 
  49   0.0000       1.513770        41.1918 
  50   0.0000       1.548677        42.1416 
  51   0.0000       1.560790        42.4713 
  52   0.0000       1.618129        44.0315 
  53   0.0000       1.656506        45.0758 
  54   0.0000       1.728588        47.0373 
  55   0.0000       1.761487        47.9325 
  56   0.0000       1.786237        48.6060 
  57   0.0000       1.859610        50.6026 
  58   0.0000       1.872552        50.9547 
  59   0.0000       1.905305        51.8460 
  60   0.0000       1.985362        54.0244 
  61   0.0000       2.073458        56.4217 
  62   0.0000       2.102160        57.2027 
  63   0.0000       2.196669        59.7744 
  64   0.0000       2.296485        62.4905 
  65   0.0000       2.306277        62.7570 
  66   0.0000       2.374333        64.6089 
  67   0.0000       2.415012        65.7158 
  68   0.0000       2.462906        67.0191 
  69   0.0000       2.532464        68.9118 
  70   0.0000       2.560513        69.6751 
  71   0.0000       2.612481        71.0892 
  72   0.0000       2.640500        71.8517 
  73   0.0000       2.682353        72.9905 
  74   0.0000       2.763144        75.1890 
  75   0.0000       2.858229        77.7764 
  76   0.0000       2.862443        77.8910 
  77   0.0000       2.956621        80.4537 
  78   0.0000       2.992820        81.4388 
  79   0.0000       3.040039        82.7237 
  80   0.0000       3.045787        82.8801 
  81   0.0000       3.075607        83.6915 
  82   0.0000       3.083307        83.9011 
  83   0.0000       3.129958        85.1705 
  84   0.0000       3.195404        86.9514 
  85   0.0000       3.233934        87.9998 
  86   0.0000       3.301089        89.8272 
  87   0.0000       3.311045        90.0981 
  88   0.0000       3.377758        91.9135 
  89   0.0000       3.442860        93.6850 
  90   0.0000       3.496032        95.1319 
  91   0.0000       3.648572        99.2827 
  92   0.0000       3.690950       100.4359 
  93   0.0000       3.780162       102.8634 
  94   0.0000       3.930034       106.9417 
  95   0.0000       4.011726       109.1646 
  96   0.0000       4.085019       111.1590 
  97   0.0000       4.226617       115.0121 
  98   0.0000       4.364652       118.7682 
  99   0.0000       4.573047       124.4389 
 100   0.0000       4.633424       126.0819 
 101   0.0000       4.806987       130.8048 
 102   0.0000       5.210790       141.7928 
 103   0.0000       5.238975       142.5598 
 104   0.0000       5.388598       146.6312 
 105   0.0000       5.413754       147.3157 
 106   0.0000       5.742879       156.2717 
 107   0.0000       5.784822       157.4130 
 108   0.0000       5.963462       162.2740 
 109   0.0000       6.380254       173.6155 
 110   0.0000       6.385816       173.7669 
 111   0.0000       6.779761       184.4867 
 112   0.0000       6.805067       185.1753 
 113   0.0000       6.983869       190.0407 
 114   0.0000      21.879923       595.3830 
 115   0.0000      22.469422       611.4241 
 116   0.0000      43.778510      1191.2738 

                    ********************************
                    * MULLIKEN POPULATION ANALYSIS *
                    ********************************

-----------------------
MULLIKEN ATOMIC CHARGES
-----------------------
   0 O :   -0.450369
   1 C :   -0.112553
   2 C :   -0.128617
   3 H :    0.153989
   4 H :    0.206781
   5 H :    0.178422
   6 H :    0.152348
Sum of atomic charges:    0.0000000

--------------------------------
MULLIKEN REDUCED ORBITAL CHARGES
--------------------------------
  0 O s       :     3.909011  s :     3.909011
      pz      :     1.514393  p :     4.516609
      px      :     1.666328
      py      :     1.335888
      dz2     :     0.002859  d :     0.023474
      dxz     :     0.000846
      dyz     :     0.005886
      dx2y2   :     0.006352
      dxy     :     0.007531
      f0      :     0.000113  f :     0.001275
      f+1     :     0.000056
      f-1     :     0.000136
      f+2     :     0.000137
      f-2     :     0.000119
      f+3     :     0.000438
      f-3     :     0.000275
  1 C s       :     3.210404  s :     3.210404
      pz      :     1.043162  p :     2.745674
      px      :     0.872294
      py      :     0.830218
      dz2     :     0.019472  d :     0.146022
      dxz     :     0.020156
      dyz     :     0.031731
      dx2y2   :     0.036955
      dxy     :     0.037708
      f0      :     0.001569  f :     0.010454
      f+1     :     0.001392
      f-1     :     0.000229
      f+2     :     0.001199
      f-2     :     0.000859
      f+3     :     0.002055
      f-3     :     0.003151
  2 C s       :     3.349300  s :     3.349300
      pz      :     1.056106  p :     2.736359
      px      :     0.997461
      py      :     0.682792
      dz2     :     0.003457  d :     0.039507
      dxz     :     0.022446
      dyz     :     0.001954
      dx2y2   :     0.003901
      dxy     :     0.007749
      f0      :     0.000316  f :     0.003451
      f+1     :     0.000985
      f-1     :     0.000082
      f+2     :     0.000640
      f-2     :     0.000052
      f+3     :     0.000581
      f-3     :     0.000797
  3 H s       :     0.815861  s :     0.815861
      pz      :     0.011025  p :     0.030151
      px      :     0.008646
      py      :     0.010479
  4 H s       :     0.767581  s :     0.767581
      pz      :     0.012690  p :     0.025638
      px      :     0.005713
      py      :     0.007235
  5 H s       :     0.800487  s :     0.800487
      pz      :     0.010237  p :     0.021091
      px      :     0.007039
      py      :     0.003815
  6 H s       :     0.827384  s :     0.827384
      pz      :     0.010367  p :     0.020268
      px      :     0.006511
      py      :     0.003390


                     *******************************
                     * LOEWDIN POPULATION ANALYSIS *
                     *******************************

----------------------
LOEWDIN ATOMIC CHARGES
----------------------
   0 O :   -0.144844
   1 C :   -0.390054
   2 C :   -0.013767
   3 H :    0.073587
   4 H :    0.206085
   5 H :    0.136572
   6 H :    0.132420

-------------------------------
LOEWDIN REDUCED ORBITAL CHARGES
-------------------------------
  0 O s       :     3.584994  s :     3.584994
      pz      :     1.456111  p :     4.501861
      px      :     1.629176
      py      :     1.416574
      dz2     :     0.006215  d :     0.054510
      dxz     :     0.002121
      dyz     :     0.014501
      dx2y2   :     0.016904
      dxy     :     0.014770
      f0      :     0.000416  f :     0.003478
      f+1     :     0.000139
      f-1     :     0.000401
      f+2     :     0.000381
      f-2     :     0.000381
      f+3     :     0.000905
      f-3     :     0.000856
  1 C s       :     2.818146  s :     2.818146
      pz      :     1.047535  p :     2.967832
      px      :     1.002801
      py      :     0.917496
      dz2     :     0.094546  d :     0.537278
      dxz     :     0.077216
      dyz     :     0.075111
      dx2y2   :     0.160744
      dxy     :     0.129661
      f0      :     0.008796  f :     0.066798
      f+1     :     0.007549
      f-1     :     0.005384
      f+2     :     0.006455
      f-2     :     0.004662
      f+3     :     0.017110
      f-3     :     0.016842
  2 C s       :     2.996387  s :     2.996387
      pz      :     1.084084  p :     2.817554
      px      :     1.087660
      py      :     0.645809
      dz2     :     0.023025  d :     0.183323
      dxz     :     0.098746
      dyz     :     0.004331
      dx2y2   :     0.029412
      dxy     :     0.027809
      f0      :     0.002110  f :     0.016503
      f+1     :     0.002878
      f-1     :     0.000514
      f+2     :     0.003376
      f-2     :     0.000801
      f+3     :     0.003385
      f-3     :     0.003440
  3 H s       :     0.821053  s :     0.821053
      pz      :     0.041929  p :     0.105360
      px      :     0.029151
      py      :     0.034281
  4 H s       :     0.727545  s :     0.727545
      pz      :     0.033727  p :     0.066369
      px      :     0.015224
      py      :     0.017419
  5 H s       :     0.801364  s :     0.801364
      pz      :     0.031278  p :     0.062064
      px      :     0.019880
      py      :     0.010906
  6 H s       :     0.809254  s :     0.809254
      pz      :     0.030871  p :     0.058326
      px      :     0.017955
      py      :     0.009500


                      *****************************
                      * MAYER POPULATION ANALYSIS *
                      *****************************

  NA   - Mulliken gross atomic population
  ZA   - Total nuclear charge
  QA   - Mulliken gross atomic charge
  VA   - Mayer's total valence
  BVA  - Mayer's bonded valence
  FA   - Mayer's free valence

  ATOM       NA         ZA         QA         VA         BVA        FA
  0 O      8.4504     8.0000    -0.4504     1.7191     1.7191     0.0000
  1 C      6.1126     6.0000    -0.1126     4.0846     4.0846    -0.0000
  2 C      6.1286     6.0000    -0.1286     3.6207     3.6207     0.0000
  3 H      0.8460     1.0000     0.1540     0.9924     0.9924     0.0000
  4 H      0.7932     1.0000     0.2068     0.9760     0.9760    -0.0000
  5 H      0.8216     1.0000     0.1784     0.9566     0.9566     0.0000
  6 H      0.8477     1.0000     0.1523     0.9666     0.9666     0.0000

  Mayer bond orders larger than 0.100000
B(  0-O ,  1-C ) :   1.0692 B(  0-O ,  2-C ) :   0.5821 B(  1-C ,  2-C ) :   1.1334 
B(  1-C ,  3-H ) :   0.9957 B(  1-C ,  4-H ) :   0.8618 B(  2-C ,  5-H ) :   0.9307 
B(  2-C ,  6-H ) :   0.9407 

-------
TIMINGS
-------

Total SCF time: 0 days 0 hours 0 min 4 sec 

Total time                  ....       4.756 sec
Sum of individual times     ....       4.423 sec  ( 93.0%)

Fock matrix formation       ....       4.099 sec  ( 86.2%)
  Split-RI-J                ....       0.396 sec  (  9.7% of F)
  Chain of spheres X        ....       2.763 sec  ( 67.4% of F)
  XC integration            ....       0.850 sec  ( 20.7% of F)
    Basis function eval.    ....       0.234 sec  ( 27.6% of XC)
    Density eval.           ....       0.173 sec  ( 20.3% of XC)
    XC-Functional eval.     ....       0.050 sec  (  5.9% of XC)
    XC-Potential eval.      ....       0.286 sec  ( 33.7% of XC)
Diagonalization             ....       0.036 sec  (  0.8%)
Density matrix formation    ....       0.003 sec  (  0.1%)
Population analysis         ....       0.004 sec  (  0.1%)
Initial guess               ....       0.016 sec  (  0.3%)
Orbital Transformation      ....       0.000 sec  (  0.0%)
Orbital Orthonormalization  ....       0.000 sec  (  0.0%)
DIIS solution               ....       0.035 sec  (  0.7%)
SOSCF solution              ....       0.024 sec  (  0.5%)
Grid generation             ....       0.207 sec  (  4.3%)

Maximum memory used throughout the entire SCF-calculation: 61.0 MB


-------------------------------------------------------------------------------
                          DFT DISPERSION CORRECTION                            
                                                                               
                              DFTD3 V3.1  Rev 1                                
                          USING Becke-Johnson damping                          
-------------------------------------------------------------------------------
The PBE0 functional is recognized
Active option DFTDOPT                   ...         4   

molecular C6(AA) [au] = 395.259267 


            DFT-D V3
 parameters
 s6 scaling factor         :     1.0000 
 a1 scaling factor         :     0.4145 
 s8 scaling factor         :     1.2177 
 a2 scaling factor         :     4.8593 
 ad hoc parameters k1-k3   :    16.0000     1.3333    -4.0000 

 Edisp/kcal,au: -1.613230491965  -0.002570846157 
 E6   /kcal   :  -1.052212749 
 E8   /kcal   :  -0.561017743 
 % E8         :  34.776043831 

-------------------------   ----------------
Dispersion correction           -0.002570846
-------------------------   ----------------


-------------------------   --------------------
FINAL SINGLE POINT ENERGY      -153.447420321232
-------------------------   --------------------



           ************************************************************
           *        Program running with 8 parallel MPI-processes     *
           *              working on a common directory               *
           ************************************************************
------------------------------------------------------------------------------
                         ORCA SCF GRADIENT CALCULATION
------------------------------------------------------------------------------

 ... reading COSX grid (gridx3)
Gradient of the Kohn-Sham DFT energy:
Kohn-Sham wavefunction type      ... RKS
Hartree-Fock exchange scaling    ...    0.250
Number of operators              ...    1
Number of atoms                  ...    7
Basis set dimensions             ...  117
Integral neglect threshold       ... 2.5e-11
Integral primitive cutoff        ... 2.5e-12
SHARK Integral package           ... ON

Nuc. rep. gradient       (SHARK) ... done (  0.0 sec)
HCore & Overlap gradient (SHARK) ... done (  0.0 sec)
RI-J gradient            (SHARK) ... done (  0.1 sec)
COSX-gradient                    ... done (  0.3 sec)
Exchange-correlation gradient    ... done
Dispersion correction            ... done

------------------
CARTESIAN GRADIENT
------------------

   1   O   :   -0.014726056   -0.029222092    0.030040001
   2   C   :   -0.129918602   -0.095055668    0.152208722
   3   C   :    0.017570647    0.030985694   -0.018315190
   4   H   :    0.080261791    0.088219615   -0.170832619
   5   H   :    0.003212746    0.029086330   -0.003935230
   6   H   :    0.023875475   -0.021302021   -0.016336908
   7   H   :    0.019719764   -0.002709215    0.027195082

Difference to translation invariance:
           :   -0.0000042348    0.0000026421    0.0000238589

Difference to rotation invariance:
           :    0.0000578597    0.0000807854    0.0005520169

Norm of the cartesian gradient     ...    0.3152239619
RMS gradient                       ...    0.0687875079
MAX gradient                       ...    0.1708326189

-------
TIMINGS
-------

Total SCF gradient time            ...        0.686 sec

One electron gradient       ....       0.010 sec  (  1.4%)
RI-J Coulomb gradient       ....       0.079 sec  ( 11.6%)
COSX gradient               ....       0.308 sec  ( 44.9%)
XC gradient                 ....       0.147 sec  ( 21.4%)

Maximum memory used throughout the entire SCFGRAD-calculation: 35.8 MB

                            ***************************************
                            *     ORCA property calculations      *
                            ***************************************

                                    ---------------------
                                    Active property flags
                                    ---------------------
   (+) Dipole Moment


------------------------------------------------------------------------------
                       ORCA ELECTRIC PROPERTIES CALCULATION
------------------------------------------------------------------------------

Dipole Moment Calculation                       ... on
Quadrupole Moment Calculation                   ... off
Polarizability Calculation                      ... off
GBWName                                         ... ox_gs_G_orca0000.gbw
Electron density                                ... ox_gs_G_orca0000.scfp
The origin for moment calculation is the CENTER OF MASS  = (-1.076582, -0.097238  0.067127)

-------------
DIPOLE MOMENT
-------------
                                X             Y             Z
Electronic contribution:     -1.12570       1.13248       0.14363
Nuclear contribution   :      2.27181      -2.25900      -0.13039
                        -----------------------------------------
Total Dipole Moment    :      1.14611      -1.12652       0.01324
                        -----------------------------------------
Magnitude (a.u.)       :      1.60711
Magnitude (Debye)      :      4.08495



--------------------
Rotational spectrum 
--------------------
 
Rotational constants in cm-1:     1.575844     0.305738     0.286191 
Rotational constants in MHz : 47242.605745  9165.803381  8579.795303 

 Dipole components along the rotational axes: 
x,y,z [a.u.] :     1.545755    -0.437866    -0.041411 
x,y,z [Debye]:     3.928998    -1.112968    -0.105258 

 

Timings for individual modules:

Sum of individual times         ...        6.121 sec (=   0.102 min)
GTO integral calculation        ...        0.305 sec (=   0.005 min)   5.0 %
SCF iterations                  ...        4.934 sec (=   0.082 min)  80.6 %
SCF Gradient evaluation         ...        0.883 sec (=   0.015 min)  14.4 %
                             ****ORCA TERMINATED NORMALLY****
TOTAL RUN TIME: 0 days 0 hours 0 minutes 6 seconds 381 msec
