
                                 *****************
                                 * O   R   C   A *
                                 *****************

                                            #,                                       
                                            ###                                      
                                            ####                                     
                                            #####                                    
                                            ######                                   
                                           ########,                                 
                                     ,,################,,,,,                         
                               ,,#################################,,                 
                          ,,##########################################,,             
                       ,#########################################, ''#####,          
                    ,#############################################,,   '####,        
                  ,##################################################,,,,####,       
                ,###########''''           ''''###############################       
              ,#####''   ,,,,##########,,,,          '''####'''          '####       
            ,##' ,,,,###########################,,,                        '##       
           ' ,,###''''                  '''############,,,                           
         ,,##''                                '''############,,,,        ,,,,,,###''
      ,#''                                            '''#######################'''  
     '                                                          ''''####''''         
             ,#######,   #######,   ,#######,      ##                                
            ,#'     '#,  ##    ##  ,#'     '#,    #''#        ######   ,####,        
            ##       ##  ##   ,#'  ##            #'  '#       #        #'  '#        
            ##       ##  #######   ##           ,######,      #####,   #    #        
            '#,     ,#'  ##    ##  '#,     ,#' ,#      #,         ##   #,  ,#        
             '#######'   ##     ##  '#######'  #'      '#     #####' # '####'        



                  #######################################################
                  #                        -***-                        #
                  #          Department of theory and spectroscopy      #
                  #    Directorship and core code : Frank Neese         #
                  #        Max Planck Institute fuer Kohlenforschung    #
                  #                Kaiser Wilhelm Platz 1               #
                  #                 D-45470 Muelheim/Ruhr               #
                  #                      Germany                        #
                  #                                                     #
                  #                  All rights reserved                #
                  #                        -***-                        #
                  #######################################################


                         Program Version 5.0.2 -  RELEASE  -


 With contributions from (in alphabetic order):
   Daniel Aravena         : Magnetic Suceptibility
   Michael Atanasov       : Ab Initio Ligand Field Theory (pilot matlab implementation)
   Alexander A. Auer      : GIAO ZORA, VPT2 properties, NMR spectrum
   Ute Becker             : Parallelization
   Giovanni Bistoni       : ED, misc. LED, open-shell LED, HFLD
   Martin Brehm           : Molecular dynamics
   Dmytro Bykov           : SCF Hessian
   Vijay G. Chilkuri      : MRCI spin determinant printing, contributions to CSF-ICE
   Dipayan Datta          : RHF DLPNO-CCSD density
   Achintya Kumar Dutta   : EOM-CC, STEOM-CC
   Dmitry Ganyushin       : Spin-Orbit,Spin-Spin,Magnetic field MRCI
   Miquel Garcia          : C-PCM and meta-GGA Hessian, CC/C-PCM, Gaussian charge scheme
   Yang Guo               : DLPNO-NEVPT2, F12-NEVPT2, CIM, IAO-localization
   Andreas Hansen         : Spin unrestricted coupled pair/coupled cluster methods
   Benjamin Helmich-Paris : MC-RPA, TRAH-SCF, COSX integrals
   Lee Huntington         : MR-EOM, pCC
   Robert Izsak           : Overlap fitted RIJCOSX, COSX-SCS-MP3, EOM
   Marcus Kettner         : VPT2
   Christian Kollmar      : KDIIS, OOCD, Brueckner-CCSD(T), CCSD density, CASPT2, CASPT2-K
   Simone Kossmann        : Meta GGA functionals, TD-DFT gradient, OOMP2, MP2 Hessian
   Martin Krupicka        : Initial AUTO-CI
   Lucas Lang             : DCDCAS
   Marvin Lechner         : AUTO-CI (C++ implementation), FIC-MRCC
   Dagmar Lenk            : GEPOL surface, SMD
   Dimitrios Liakos       : Extrapolation schemes; Compound Job, initial MDCI parallelization
   Dimitrios Manganas     : Further ROCIS development; embedding schemes
   Dimitrios Pantazis     : SARC Basis sets
   Anastasios Papadopoulos: AUTO-CI, single reference methods and gradients
   Taras Petrenko         : DFT Hessian,TD-DFT gradient, ASA, ECA, R-Raman, ABS, FL, XAS/XES, NRVS
   Peter Pinski           : DLPNO-MP2, DLPNO-MP2 Gradient
   Christoph Reimann      : Effective Core Potentials
   Marius Retegan         : Local ZFS, SOC
   Christoph Riplinger    : Optimizer, TS searches, QM/MM, DLPNO-CCSD(T), (RO)-DLPNO pert. Triples
   Tobias Risthaus        : Range-separated hybrids, TD-DFT gradient, RPA, STAB
   Michael Roemelt        : Original ROCIS implementation
   Masaaki Saitow         : Open-shell DLPNO-CCSD energy and density
   Barbara Sandhoefer     : DKH picture change effects
   Avijit Sen             : IP-ROCIS
   Kantharuban Sivalingam : CASSCF convergence, NEVPT2, FIC-MRCI
   Bernardo de Souza      : ESD, SOC TD-DFT
   Georgi Stoychev        : AutoAux, RI-MP2 NMR, DLPNO-MP2 response
   Willem Van den Heuvel  : Paramagnetic NMR
   Boris Wezisla          : Elementary symmetry handling
   Frank Wennmohs         : Technical directorship


 We gratefully acknowledge several colleagues who have allowed us to
 interface, adapt or use parts of their codes:
   Stefan Grimme, W. Hujo, H. Kruse, P. Pracht,  : VdW corrections, initial TS optimization,
                  C. Bannwarth, S. Ehlert          DFT functionals, gCP, sTDA/sTD-DF
   Ed Valeev, F. Pavosevic, A. Kumar             : LibInt (2-el integral package), F12 methods
   Garnet Chan, S. Sharma, J. Yang, R. Olivares  : DMRG
   Ulf Ekstrom                                   : XCFun DFT Library
   Mihaly Kallay                                 : mrcc  (arbitrary order and MRCC methods)
   Jiri Pittner, Ondrej Demel                    : Mk-CCSD
   Frank Weinhold                                : gennbo (NPA and NBO analysis)
   Christopher J. Cramer and Donald G. Truhlar   : smd solvation model
   Lars Goerigk                                  : TD-DFT with DH, B97 family of functionals
   V. Asgeirsson, H. Jonsson                     : NEB implementation
   FAccTs GmbH                                   : IRC, NEB, NEB-TS, DLPNO-Multilevel, CI-OPT
                                                   MM, QMMM, 2- and 3-layer-ONIOM, Crystal-QMMM,
                                                   LR-CPCM, SF, NACMEs, symmetry and pop. for TD-DFT,
                                                   nearIR, NL-DFT gradient (VV10), updates on ESD,
                                                   ML-optimized integration grids
   S Lehtola, MJT Oliveira, MAL Marques          : LibXC Library
   Liviu Ungur et al                             : ANISO software


 Your calculation uses the libint2 library for the computation of 2-el integrals
 For citations please refer to: http://libint.valeyev.net

 Your ORCA version has been built with support for libXC version: 5.1.0
 For citations please refer to: https://tddft.org/programs/libxc/

 This ORCA versions uses:
   CBLAS   interface :  Fast vector & matrix operations
   LAPACKE interface :  Fast linear algebra routines
   SCALAPACK package :  Parallel linear algebra routines
   Shared memory     :  Shared parallel matrices
   BLAS/LAPACK       :  OpenBLAS 0.3.15  USE64BITINT DYNAMIC_ARCH NO_AFFINITY SkylakeX SINGLE_THREADED
        Core in use  :  SkylakeX
   Copyright (c) 2011-2014, The OpenBLAS Project


Your calculation utilizes the atom-pairwise dispersion correction
with the Becke-Johnson damping scheme (D3BJ)
Cite in your paper:
S.Grimme, S.Ehrlich, L.Goerigk, J Comput Chem, (2011), 32, 1456–1465 
S.Grimme, J.Antony, S.Ehrlich and H.Krieg, J.Chem.Phys., 132, (2010), 154104 
   

================================================================================

----- Orbital basis set information -----
Your calculation utilizes the basis: def2-TZVP
   F. Weigend and R. Ahlrichs, Phys. Chem. Chem. Phys. 7, 3297 (2005).

----- AuxJ basis set information -----
Your calculation utilizes the auxiliary basis: def2/J
   F. Weigend, Phys. Chem. Chem. Phys. 8, 1057 (2006).

================================================================================
                                        WARNINGS
                       Please study these warnings very carefully!
================================================================================


INFO   : the flag for use of the SHARK integral package has been found!

================================================================================
                                       INPUT FILE
================================================================================
NAME = ox_gs_G_orca0008.inp
|  1> ! engrad PBE0 D3BJ def2-TZVP  
|  2> %pal nprocs 8 end
|  3> %maxcore 3000
|  4>  
|  5> *xyz 0 1 
|  6> O   -1.4810054250092544 0.7129739456254789 -0.07636875863297098
|  7> C   -0.7880826838857367 -0.3635058414919722 0.0669064665210543
|  8> C   0.7968541339384557 -0.3684464296454291 -0.06229125508486735
|  9> H   -1.2690844871139124 -0.6914210211832355 1.0778467976862363
| 10> H   -1.2188944981965943 -0.6793815533140738 -1.0042858012523828
| 11> H   1.3233036481950111 -0.7201584285047639 -0.8617283816668724
| 12> H   1.2602611054019595 -0.7012091268455557 1.0083226856811036
| 13> *
| 14> 
| 15>                          ****END OF INPUT****
================================================================================

                     *******************************
                     * Energy+Gradient Calculation *
                     *******************************

---------------------------------
CARTESIAN COORDINATES (ANGSTROEM)
---------------------------------
  O     -1.481005    0.712974   -0.076369
  C     -0.788083   -0.363506    0.066906
  C      0.796854   -0.368446   -0.062291
  H     -1.269084   -0.691421    1.077847
  H     -1.218894   -0.679382   -1.004286
  H      1.323304   -0.720158   -0.861728
  H      1.260261   -0.701209    1.008323

----------------------------
CARTESIAN COORDINATES (A.U.)
----------------------------
  NO LB      ZA    FRAG     MASS         X           Y           Z
   0 O     8.0000    0    15.999   -2.798695    1.347325   -0.144316
   1 C     6.0000    0    12.011   -1.489260   -0.686926    0.126435
   2 C     6.0000    0    12.011    1.505836   -0.696263   -0.117713
   3 H     1.0000    0     1.008   -2.398222   -1.306596    2.036835
   4 H     1.0000    0     1.008   -2.303377   -1.283845   -1.897825
   5 H     1.0000    0     1.008    2.500681   -1.360902   -1.628431
   6 H     1.0000    0     1.008    2.381548   -1.325093    1.905454

--------------------------------
INTERNAL COORDINATES (ANGSTROEM)
--------------------------------
 O      0   0   0     0.000000000000     0.00000000     0.00000000
 C      1   0   0     1.288207455102     0.00000000     0.00000000
 C      2   1   0     1.590201615260   121.98356662     0.00000000
 H      2   1   3     1.166572523659    96.28589734   129.69449810
 H      2   1   3     1.197008420692    85.83621847   253.04280936
 H      3   2   1     1.019779456824   125.40078727   255.60677664
 H      3   2   1     1.213132822081   108.05188761   117.20658869

---------------------------
INTERNAL COORDINATES (A.U.)
---------------------------
 O      0   0   0     0.000000000000     0.00000000     0.00000000
 C      1   0   0     2.434359293819     0.00000000     0.00000000
 C      2   1   0     3.005045550560   121.98356662     0.00000000
 H      2   1   3     2.204502585074    96.28589734   129.69449810
 H      2   1   3     2.262018095105    85.83621847   253.04280936
 H      3   2   1     1.927103890396   125.40078727   255.60677664
 H      3   2   1     2.292488797805   108.05188761   117.20658869

---------------------
BASIS SET INFORMATION
---------------------
There are 3 groups of distinct atoms

 Group   1 Type O   : 11s6p2d1f contracted to 5s3p2d1f pattern {62111/411/11/1}
 Group   2 Type C   : 11s6p2d1f contracted to 5s3p2d1f pattern {62111/411/11/1}
 Group   3 Type H   : 5s1p contracted to 3s1p pattern {311/1}

Atom   0O    basis set group =>   1
Atom   1C    basis set group =>   2
Atom   2C    basis set group =>   2
Atom   3H    basis set group =>   3
Atom   4H    basis set group =>   3
Atom   5H    basis set group =>   3
Atom   6H    basis set group =>   3
---------------------------------
AUXILIARY/J BASIS SET INFORMATION
---------------------------------
There are 3 groups of distinct atoms

 Group   1 Type O   : 12s5p4d2f1g contracted to 6s4p3d1f1g pattern {711111/2111/211/2/1}
 Group   2 Type C   : 12s5p4d2f1g contracted to 6s4p3d1f1g pattern {711111/2111/211/2/1}
 Group   3 Type H   : 5s2p1d contracted to 3s1p1d pattern {311/2/1}

Atom   0O    basis set group =>   1
Atom   1C    basis set group =>   2
Atom   2C    basis set group =>   2
Atom   3H    basis set group =>   3
Atom   4H    basis set group =>   3
Atom   5H    basis set group =>   3
Atom   6H    basis set group =>   3


           ************************************************************
           *        Program running with 8 parallel MPI-processes     *
           *              working on a common directory               *
           ************************************************************
------------------------------------------------------------------------------
                           ORCA GTO INTEGRAL CALCULATION
                           -- RI-GTO INTEGRALS CHOSEN --
------------------------------------------------------------------------------
------------------------------------------------------------------------------
                   ___                                                        
                  /   \      - P O W E R E D   B Y -                         
                 /     \                                                     
                 |  |  |   _    _      __       _____    __    __             
                 |  |  |  | |  | |    /  \     |  _  \  |  |  /  |          
                  \  \/   | |  | |   /    \    | | | |  |  | /  /          
                 / \  \   | |__| |  /  /\  \   | |_| |  |  |/  /          
                |  |  |   |  __  | /  /__\  \  |    /   |      \           
                |  |  |   | |  | | |   __   |  |    \   |  |\   \          
                \     /   | |  | | |  |  |  |  | |\  \  |  | \   \       
                 \___/    |_|  |_| |__|  |__|  |_| \__\ |__|  \__/        
                                                                              
                      - O R C A' S   B I G   F R I E N D -                    
                                      &                                       
                       - I N T E G R A L  F E E D E R -                       
                                                                              
 v1 FN, 2020, v2 2021                                                         
------------------------------------------------------------------------------


Reading SHARK input file ox_gs_G_orca0008.SHARKINP.tmp ... ok
----------------------
SHARK INTEGRAL PACKAGE
----------------------

Number of atoms                             ...      7
Number of basis functions                   ...    117
Number of shells                            ...     49
Maximum angular momentum                    ...      3
Integral batch strategy                     ... SHARK/LIBINT Hybrid
RI-J (if used) integral strategy            ... SPLIT-RIJ (Revised 2003 algorithm where possible)
Printlevel                                  ...      1
Contraction scheme used                     ... SEGMENTED contraction
Coulomb Range Separation                    ... NOT USED
Exchange Range Separation                   ... NOT USED
Finite Nucleus Model                        ... NOT USED
Auxiliary Coulomb fitting basis             ... AVAILABLE
   # of basis functions in Aux-J            ...    191
   # of shells in Aux-J                     ...     65
   Maximum angular momentum in Aux-J        ...      4
Auxiliary J/K fitting basis                 ... NOT available
Auxiliary Correlation fitting basis         ... NOT available
Auxiliary 'external' fitting basis          ... NOT available
Integral threshold                          ...     2.500000e-11
Primitive cut-off                           ...     2.500000e-12
Primitive pair pre-selection threshold      ...     2.500000e-12

Calculating pre-screening integrals         ... done (  0.0 sec) Dimension = 49
Organizing shell pair data                  ... done (  0.0 sec)
Shell pair information
Total number of shell pairs                 ...      1225
Shell pairs after pre-screening             ...      1210
Total number of primitive shell pairs       ...      3648
Primitive shell pairs kept                  ...      3059
          la=0 lb=0:    368 shell pairs
          la=1 lb=0:    348 shell pairs
          la=1 lb=1:     91 shell pairs
          la=2 lb=0:    160 shell pairs
          la=2 lb=1:     78 shell pairs
          la=2 lb=2:     21 shell pairs
          la=3 lb=0:     81 shell pairs
          la=3 lb=1:     39 shell pairs
          la=3 lb=2:     18 shell pairs
          la=3 lb=3:      6 shell pairs

Calculating one electron integrals          ... done (  0.0 sec)
Calculating RI/J V-Matrix + Cholesky decomp.... done (  0.0 sec)
Calculating Nuclear repulsion               ... done (  0.0 sec) ENN=     67.070189191828 Eh

SHARK setup successfully completed in   0.1 seconds

Maximum memory used throughout the entire GTOINT-calculation: 14.9 MB


           ************************************************************
           *        Program running with 8 parallel MPI-processes     *
           *              working on a common directory               *
           ************************************************************
-------------------------------------------------------------------------------
                                 ORCA SCF
-------------------------------------------------------------------------------

------------
SCF SETTINGS
------------
Hamiltonian:
 Density Functional     Method          .... DFT(GTOs)
 Exchange Functional    Exchange        .... PBE
   PBE kappa parameter   XKappa         ....  0.804000
   PBE mue parameter    XMuePBE         ....  0.219520
 Correlation Functional Correlation     .... PBE
   PBE beta parameter  CBetaPBE         ....  0.066725
 LDA part of GGA corr.  LDAOpt          .... PW91-LDA
 Gradients option       PostSCFGGA      .... off
 Hybrid DFT is turned on
   Fraction HF Exchange ScalHFX         ....  0.250000
   Scaling of DF-GGA-X  ScalDFX         ....  0.750000
   Scaling of DF-GGA-C  ScalDFC         ....  1.000000
   Scaling of DF-LDA-C  ScalLDAC        ....  1.000000
   Perturbative correction              ....  0.000000
   Density functional embedding theory  .... OFF
   NL short-range parameter             ....  6.900000
 RI-approximation to the Coulomb term is turned on
   Number of AuxJ basis functions       .... 191
   RIJ-COSX (HFX calculated with COS-X)).... on


General Settings:
 Integral files         IntName         .... ox_gs_G_orca0008
 Hartree-Fock type      HFTyp           .... RHF
 Total Charge           Charge          ....    0
 Multiplicity           Mult            ....    1
 Number of Electrons    NEL             ....   24
 Basis Dimension        Dim             ....  117
 Nuclear Repulsion      ENuc            ....     67.0701891918 Eh

Convergence Acceleration:
 DIIS                   CNVDIIS         .... on
   Start iteration      DIISMaxIt       ....    12
   Startup error        DIISStart       ....  0.200000
   # of expansion vecs  DIISMaxEq       ....     5
   Bias factor          DIISBfac        ....   1.050
   Max. coefficient     DIISMaxC        ....  10.000
 Trust-Rad. Augm. Hess. CNVTRAH         .... auto
   Auto Start mean grad. ratio tolernc. ....  1.125000
   Auto Start start iteration           ....    20
   Auto Start num. interpolation iter.  ....    10
   Max. Number of Micro iterations      ....    16
   Max. Number of Macro iterations      .... Maxiter - #DIIS iter
   Number of Davidson start vectors     ....     2
   Converg. threshold I  (grad. norm)   ....   1.000e-05
   Converg. threshold II (energy diff.) ....   1.000e-08
   Grad. Scal. Fac. for Micro threshold ....   0.100
   Minimum threshold for Micro iter.    ....   0.010
   NR start threshold (gradient norm)   ....   0.001
   Initial trust radius                 ....   0.400
   Minimum AH scaling param. (alpha)    ....   1.000
   Maximum AH scaling param. (alpha)    .... 1000.000
   Orbital update algorithm             .... Taylor
   White noise on init. David. guess    .... on
   Maximum white noise                  ....   0.010
   Quad. conv. algorithm                .... NR
 SOSCF                  CNVSOSCF        .... on
   Start iteration      SOSCFMaxIt      ....   150
   Startup grad/error   SOSCFStart      ....  0.003300
 Level Shifting         CNVShift        .... on
   Level shift para.    LevelShift      ....    0.2500
   Turn off err/grad.   ShiftErr        ....    0.0010
 Zerner damping         CNVZerner       .... off
 Static damping         CNVDamp         .... on
   Fraction old density DampFac         ....    0.7000
   Max. Damping (<1)    DampMax         ....    0.9800
   Min. Damping (>=0)   DampMin         ....    0.0000
   Turn off err/grad.   DampErr         ....    0.1000
 Fernandez-Rico         CNVRico         .... off

SCF Procedure:
 Maximum # iterations   MaxIter         ....   125
 SCF integral mode      SCFMode         .... Direct
   Integral package                     .... SHARK and LIBINT hybrid scheme
 Reset frequency        DirectResetFreq ....    20
 Integral Threshold     Thresh          ....  2.500e-11 Eh
 Primitive CutOff       TCut            ....  2.500e-12 Eh

Convergence Tolerance:
 Convergence Check Mode ConvCheckMode   .... Total+1el-Energy
 Convergence forced     ConvForced      .... 0
 Energy Change          TolE            ....  1.000e-08 Eh
 1-El. energy change                    ....  1.000e-05 Eh
 Orbital Gradient       TolG            ....  1.000e-05
 Orbital Rotation angle TolX            ....  1.000e-05
 DIIS Error             TolErr          ....  5.000e-07


Diagonalization of the overlap matrix:
Smallest eigenvalue                        ... 9.802e-04
Time for diagonalization                   ...    0.001 sec
Threshold for overlap eigenvalues          ... 1.000e-08
Number of eigenvalues below threshold      ... 0
Time for construction of square roots      ...    0.001 sec
Total time needed                          ...    0.003 sec

Time for model grid setup =    0.022 sec

------------------------------
INITIAL GUESS: MODEL POTENTIAL
------------------------------
Loading Hartree-Fock densities                     ... done
Calculating cut-offs                               ... done
Initializing the effective Hamiltonian             ... done
Setting up the integral package (SHARK)            ... done
Starting the Coulomb interaction                   ... done (   0.0 sec)
Reading the grid                                   ... done
Mapping shells                                     ... done
Starting the XC term evaluation                    ... done (   0.0 sec)
  promolecular density results
     # of electrons  =     23.997899362
     EX              =    -19.439973578
     EC              =     -0.762319085
     EX+EC           =    -20.202292664
Transforming the Hamiltonian                       ... done (   0.0 sec)
Diagonalizing the Hamiltonian                      ... done (   0.0 sec)
Back transforming the eigenvectors                 ... done (   0.0 sec)
Now organizing SCF variables                       ... done
                      ------------------
                      INITIAL GUESS DONE (   0.0 sec)
                      ------------------
-------------------
DFT GRID GENERATION
-------------------

General Integration Accuracy     IntAcc      ... 4.388
Radial Grid Type                 RadialGrid  ... OptM3 with GC (2021)
Angular Grid (max. ang.)         AngularGrid ... 4 (Lebedev-302)
Angular grid pruning method      GridPruning ... 4 (adaptive)
Weight generation scheme         WeightScheme... Becke
Basis function cutoff            BFCut       ... 1.0000e-11
Integration weight cutoff        WCut        ... 1.0000e-14
Angular grids for H and He will be reduced by one unit
Partially contracted basis set               ... off
Rotationally invariant grid construction     ... off

Total number of grid points                  ...    31386
Total number of batches                      ...      492
Average number of points per batch           ...       63
Average number of grid points per atom       ...     4484
Time for grid setup =    0.109 sec

--------------------
COSX GRID GENERATION
--------------------

GRIDX 1
-------
General Integration Accuracy     IntAcc      ... 3.816
Radial Grid Type                 RadialGrid  ... OptM3 with GC (2021)
Angular Grid (max. ang.)         AngularGrid ... 1 (Lebedev-50)
Angular grid pruning method      GridPruning ... 4 (adaptive)
Weight generation scheme         WeightScheme... Becke
Basis function cutoff            BFCut       ... 1.0000e-11
Integration weight cutoff        WCut        ... 1.0000e-14
Angular grids for H and He will be reduced by one unit
Partially contracted basis set               ... on
Rotationally invariant grid construction     ... off

Total number of grid points                  ...     4042
Total number of batches                      ...       68
Average number of points per batch           ...       59
Average number of grid points per atom       ...      577
UseSFitting                                  ... on

GRIDX 2
-------
General Integration Accuracy     IntAcc      ... 4.020
Radial Grid Type                 RadialGrid  ... OptM3 with GC (2021)
Angular Grid (max. ang.)         AngularGrid ... 2 (Lebedev-110)
Angular grid pruning method      GridPruning ... 4 (adaptive)
Weight generation scheme         WeightScheme... Becke
Basis function cutoff            BFCut       ... 1.0000e-11
Integration weight cutoff        WCut        ... 1.0000e-14
Angular grids for H and He will be reduced by one unit
Partially contracted basis set               ... on
Rotationally invariant grid construction     ... off

Total number of grid points                  ...     8730
Total number of batches                      ...      140
Average number of points per batch           ...       62
Average number of grid points per atom       ...     1247
UseSFitting                                  ... on

GRIDX 3
-------
General Integration Accuracy     IntAcc      ... 4.338
Radial Grid Type                 RadialGrid  ... OptM3 with GC (2021)
Angular Grid (max. ang.)         AngularGrid ... 3 (Lebedev-194)
Angular grid pruning method      GridPruning ... 4 (adaptive)
Weight generation scheme         WeightScheme... Becke
Basis function cutoff            BFCut       ... 1.0000e-11
Integration weight cutoff        WCut        ... 1.0000e-14
Angular grids for H and He will be reduced by one unit
Partially contracted basis set               ... on
Rotationally invariant grid construction     ... off

Total number of grid points                  ...    19308
Total number of batches                      ...      305
Average number of points per batch           ...       63
Average number of grid points per atom       ...     2758
UseSFitting                                  ... on

Time for X-Grid setup             =    0.072 sec

--------------
SCF ITERATIONS
--------------
ITER       Energy         Delta-E        Max-DP      RMS-DP      [F,P]     Damp
               ***  Starting incremental Fock matrix formation  ***
  0   -153.1974596118   0.000000000000 0.20728972  0.00595179  0.3721648 0.7000
  1   -153.3477925191  -0.150332907232 0.06926881  0.00229875  0.0870107 0.7000
                               ***Turning on DIIS***
  2   -153.3388464913   0.008946027784 0.14163780  0.00487520  0.0974177 0.0000
  3   -153.4408216706  -0.101975179301 0.04570194  0.00173581  0.0991428 0.0000
  4   -153.4606119488  -0.019790278226 0.01455865  0.00062069  0.0538421 0.0000
  5   -153.4668943484  -0.006282399531 0.01114104  0.00041149  0.0276981 0.0000
  6   -153.4689701345  -0.002075786159 0.00314949  0.00015041  0.0057293 0.0000
                      *** Initiating the SOSCF procedure ***
                           *** Shutting down DIIS ***
                      *** Re-Reading the Fockian *** 
                      *** Removing any level shift *** 
ITER      Energy       Delta-E        Grad      Rot      Max-DP    RMS-DP
  7   -153.46915487  -0.0001847386  0.001974  0.001974  0.001852  0.000081
               *** Restarting incremental Fock matrix formation ***
  8   -153.46924007  -0.0000851936  0.001798  0.018246  0.004909  0.000210
  9   -153.46934873  -0.0001086589  0.001329  0.096316  0.019265  0.001038
 10   -153.46827138   0.0010773495  0.013049  0.062512  0.013005  0.000700
 11   -153.46944042  -0.0011690486  0.000832  0.003254  0.001703  0.000086
 12   -153.46943800   0.0000024247  0.000847  0.005519  0.001639  0.000073
 13   -153.46945816  -0.0000201572  0.000058  0.000890  0.000221  0.000011
 14   -153.46945824  -0.0000000817  0.000070  0.000058  0.000077  0.000004
 15   -153.46945835  -0.0000001139  0.000006  0.000018  0.000020  0.000001
 16   -153.46945835  -0.0000000006  0.000004  0.000005  0.000004  0.000000
                 **** Energy Check signals convergence ****
              ***Rediagonalizing the Fockian in SOSCF/NRSCF***

               *****************************************************
               *                     SUCCESS                       *
               *           SCF CONVERGED AFTER  17 CYCLES          *
               *****************************************************

Old exchange energy                            =     -4.932906268 Eh
New exchange energy                            =     -4.932902595 Eh
Exchange energy change after final integration =      0.000003673 Eh
Total energy after final integration           =   -153.469454680 Eh
Final COS-X integration done in                =     0.302 sec

----------------
TOTAL SCF ENERGY
----------------

Total Energy       :         -153.46945468 Eh           -4176.11617 eV

Components:
Nuclear Repulsion  :           67.07018919 Eh            1825.07263 eV
Electronic Energy  :         -220.53964387 Eh           -6001.18880 eV
One Electron Energy:         -340.89832172 Eh           -9276.31493 eV
Two Electron Energy:          120.35867785 Eh            3275.12613 eV
Max COSX asymmetry :            0.00000145 Eh               0.00004 eV

Virial components:
Potential Energy   :         -306.18279635 Eh           -8331.65746 eV
Kinetic Energy     :          152.71334167 Eh            4155.54129 eV
Virial Ratio       :            2.00495119


DFT components:
N(Alpha)           :       12.000010934512 electrons
N(Beta)            :       12.000010934512 electrons
N(Total)           :       24.000021869023 electrons
E(X)               :      -14.841536374586 Eh       
E(C)               :       -0.770817118298 Eh       
E(XC)              :      -15.612353492884 Eh       
DFET-embed. en.    :        0.000000000000 Eh       

---------------
SCF CONVERGENCE
---------------

  Last Energy change         ...    2.0097e-10  Tolerance :   1.0000e-08
  Last MAX-Density change    ...    1.3323e-15  Tolerance :   1.0000e-07
  Last RMS-Density change    ...    2.4444e-17  Tolerance :   5.0000e-09
  Last Orbital Gradient      ...    3.3273e-07  Tolerance :   1.0000e-05
  Last Orbital Rotation      ...    1.3738e-06  Tolerance :   1.0000e-05

             **** THE GBW FILE WAS UPDATED (ox_gs_G_orca0008.gbw) ****
             **** DENSITY ox_gs_G_orca0008.scfp WAS UPDATED ****
             **** ENERGY FILE WAS UPDATED (ox_gs_G_orca0008.en.tmp) ****
             **** THE GBW FILE WAS UPDATED (ox_gs_G_orca0008.gbw) ****
             **** DENSITY ox_gs_G_orca0008.scfp WAS UPDATED ****
----------------
ORBITAL ENERGIES
----------------

  NO   OCC          E(Eh)            E(eV) 
   0   2.0000     -19.183931      -522.0213 
   1   2.0000     -10.315866      -280.7090 
   2   2.0000     -10.293378      -280.0971 
   3   2.0000      -1.046609       -28.4797 
   4   2.0000      -0.749183       -20.3863 
   5   2.0000      -0.603141       -16.4123 
   6   2.0000      -0.522940       -14.2299 
   7   2.0000      -0.473753       -12.8915 
   8   2.0000      -0.428372       -11.6566 
   9   2.0000      -0.411094       -11.1864 
  10   2.0000      -0.257339        -7.0025 
  11   2.0000      -0.229657        -6.2493 
  12   0.0000      -0.158969        -4.3258 
  13   0.0000       0.029844         0.8121 
  14   0.0000       0.064133         1.7451 
  15   0.0000       0.082002         2.2314 
  16   0.0000       0.135531         3.6880 
  17   0.0000       0.140117         3.8128 
  18   0.0000       0.188020         5.1163 
  19   0.0000       0.204933         5.5765 
  20   0.0000       0.231088         6.2882 
  21   0.0000       0.241198         6.5633 
  22   0.0000       0.262834         7.1521 
  23   0.0000       0.316825         8.6212 
  24   0.0000       0.352125         9.5818 
  25   0.0000       0.372639        10.1400 
  26   0.0000       0.392939        10.6924 
  27   0.0000       0.396128        10.7792 
  28   0.0000       0.438818        11.9409 
  29   0.0000       0.448463        12.2033 
  30   0.0000       0.502605        13.6766 
  31   0.0000       0.516491        14.0544 
  32   0.0000       0.524598        14.2750 
  33   0.0000       0.594511        16.1775 
  34   0.0000       0.676712        18.4143 
  35   0.0000       0.732104        19.9216 
  36   0.0000       0.795434        21.6449 
  37   0.0000       0.872750        23.7487 
  38   0.0000       0.899641        24.4805 
  39   0.0000       0.911853        24.8128 
  40   0.0000       0.950133        25.8544 
  41   0.0000       0.994133        27.0517 
  42   0.0000       1.032380        28.0925 
  43   0.0000       1.104580        30.0571 
  44   0.0000       1.203704        32.7544 
  45   0.0000       1.349182        36.7131 
  46   0.0000       1.407305        38.2947 
  47   0.0000       1.421553        38.6824 
  48   0.0000       1.452635        39.5282 
  49   0.0000       1.508137        41.0385 
  50   0.0000       1.556627        42.3580 
  51   0.0000       1.565471        42.5986 
  52   0.0000       1.600544        43.5530 
  53   0.0000       1.630870        44.3782 
  54   0.0000       1.708557        46.4922 
  55   0.0000       1.740752        47.3683 
  56   0.0000       1.805341        49.1258 
  57   0.0000       1.877192        51.0810 
  58   0.0000       1.889482        51.4154 
  59   0.0000       1.923701        52.3466 
  60   0.0000       1.977794        53.8185 
  61   0.0000       2.008219        54.6464 
  62   0.0000       2.067163        56.2504 
  63   0.0000       2.167989        58.9940 
  64   0.0000       2.251607        61.2693 
  65   0.0000       2.317159        63.0531 
  66   0.0000       2.373301        64.5808 
  67   0.0000       2.400919        65.3323 
  68   0.0000       2.440788        66.4172 
  69   0.0000       2.498590        67.9901 
  70   0.0000       2.533168        68.9310 
  71   0.0000       2.550643        69.4065 
  72   0.0000       2.626222        71.4631 
  73   0.0000       2.666843        72.5685 
  74   0.0000       2.720391        74.0256 
  75   0.0000       2.751806        74.8804 
  76   0.0000       2.901929        78.9655 
  77   0.0000       2.971316        80.8536 
  78   0.0000       3.008865        81.8754 
  79   0.0000       3.022071        82.2347 
  80   0.0000       3.074263        83.6549 
  81   0.0000       3.097886        84.2978 
  82   0.0000       3.108417        84.5843 
  83   0.0000       3.138507        85.4031 
  84   0.0000       3.222239        87.6816 
  85   0.0000       3.236172        88.0607 
  86   0.0000       3.267526        88.9139 
  87   0.0000       3.338486        90.8448 
  88   0.0000       3.358076        91.3779 
  89   0.0000       3.478601        94.6575 
  90   0.0000       3.520343        95.7934 
  91   0.0000       3.579930        97.4148 
  92   0.0000       3.674067        99.9764 
  93   0.0000       3.766842       102.5010 
  94   0.0000       3.802885       103.4818 
  95   0.0000       3.935979       107.1034 
  96   0.0000       4.031709       109.7084 
  97   0.0000       4.168129       113.4206 
  98   0.0000       4.266426       116.0953 
  99   0.0000       4.361447       118.6810 
 100   0.0000       4.507225       122.6478 
 101   0.0000       4.696788       127.8061 
 102   0.0000       5.190657       141.2450 
 103   0.0000       5.218193       141.9942 
 104   0.0000       5.492852       149.4681 
 105   0.0000       5.508805       149.9022 
 106   0.0000       5.987250       162.9214 
 107   0.0000       6.072213       165.2333 
 108   0.0000       6.146975       167.2677 
 109   0.0000       6.403687       174.2532 
 110   0.0000       6.408812       174.3926 
 111   0.0000       6.867675       186.8789 
 112   0.0000       6.907336       187.9582 
 113   0.0000       6.989761       190.2011 
 114   0.0000      21.963288       597.6514 
 115   0.0000      22.467433       611.3699 
 116   0.0000      43.849389      1193.2025 

                    ********************************
                    * MULLIKEN POPULATION ANALYSIS *
                    ********************************

-----------------------
MULLIKEN ATOMIC CHARGES
-----------------------
   0 O :   -0.357776
   1 C :   -0.077431
   2 C :   -0.217489
   3 H :    0.103710
   4 H :    0.248236
   5 H :    0.164307
   6 H :    0.136443
Sum of atomic charges:   -0.0000000

--------------------------------
MULLIKEN REDUCED ORBITAL CHARGES
--------------------------------
  0 O s       :     3.867945  s :     3.867945
      pz      :     1.511705  p :     4.457180
      px      :     1.639197
      py      :     1.306278
      dz2     :     0.003285  d :     0.030964
      dxz     :     0.002033
      dyz     :     0.007725
      dx2y2   :     0.008118
      dxy     :     0.009802
      f0      :     0.000161  f :     0.001687
      f+1     :     0.000079
      f-1     :     0.000164
      f+2     :     0.000111
      f-2     :     0.000238
      f+3     :     0.000474
      f-3     :     0.000459
  1 C s       :     3.232138  s :     3.232138
      pz      :     0.965212  p :     2.652369
      px      :     0.850558
      py      :     0.836599
      dz2     :     0.022127  d :     0.178789
      dxz     :     0.027291
      dyz     :     0.045779
      dx2y2   :     0.054381
      dxy     :     0.029211
      f0      :     0.001561  f :     0.014135
      f+1     :     0.001485
      f-1     :     0.000659
      f+2     :     0.001046
      f-2     :     0.001830
      f+3     :     0.002174
      f-3     :     0.005381
  2 C s       :     3.376988  s :     3.376988
      pz      :     1.039604  p :     2.797870
      px      :     0.883804
      py      :     0.874462
      dz2     :     0.005336  d :     0.039471
      dxz     :     0.015620
      dyz     :     0.005513
      dx2y2   :     0.005226
      dxy     :     0.007775
      f0      :     0.000360  f :     0.003160
      f+1     :     0.000751
      f-1     :     0.000293
      f+2     :     0.000409
      f-2     :     0.000097
      f+3     :     0.000604
      f-3     :     0.000647
  3 H s       :     0.876284  s :     0.876284
      pz      :     0.010632  p :     0.020006
      px      :     0.004917
      py      :     0.004457
  4 H s       :     0.727650  s :     0.727650
      pz      :     0.011272  p :     0.024114
      px      :     0.005876
      py      :     0.006966
  5 H s       :     0.810872  s :     0.810872
      pz      :     0.010488  p :     0.024821
      px      :     0.007089
      py      :     0.007245
  6 H s       :     0.845715  s :     0.845715
      pz      :     0.009963  p :     0.017842
      px      :     0.003892
      py      :     0.003986


                     *******************************
                     * LOEWDIN POPULATION ANALYSIS *
                     *******************************

----------------------
LOEWDIN ATOMIC CHARGES
----------------------
   0 O :   -0.013150
   1 C :   -0.512397
   2 C :   -0.106733
   3 H :    0.126466
   4 H :    0.271519
   5 H :    0.090809
   6 H :    0.143486

-------------------------------
LOEWDIN REDUCED ORBITAL CHARGES
-------------------------------
  0 O s       :     3.472731  s :     3.472731
      pz      :     1.437852  p :     4.457070
      px      :     1.603718
      py      :     1.415500
      dz2     :     0.007969  d :     0.077600
      dxz     :     0.005191
      dyz     :     0.020881
      dx2y2   :     0.021733
      dxy     :     0.021827
      f0      :     0.000690  f :     0.005748
      f+1     :     0.000303
      f-1     :     0.000619
      f+2     :     0.000374
      f-2     :     0.000906
      f+3     :     0.001424
      f-3     :     0.001433
  1 C s       :     2.860311  s :     2.860311
      pz      :     0.979223  p :     2.913091
      px      :     0.980910
      py      :     0.952958
      dz2     :     0.096479  d :     0.644909
      dxz     :     0.082761
      dyz     :     0.123253
      dx2y2   :     0.207867
      dxy     :     0.134548
      f0      :     0.011324  f :     0.094086
      f+1     :     0.008562
      f-1     :     0.005654
      f+2     :     0.006427
      f-2     :     0.012614
      f+3     :     0.015935
      f-3     :     0.033571
  2 C s       :     3.007445  s :     3.007445
      pz      :     1.082968  p :     2.914772
      px      :     0.995581
      py      :     0.836224
      dz2     :     0.026367  d :     0.168095
      dxz     :     0.069004
      dyz     :     0.013897
      dx2y2   :     0.033204
      dxy     :     0.025623
      f0      :     0.001887  f :     0.016422
      f+1     :     0.002940
      f-1     :     0.001392
      f+2     :     0.002243
      f-2     :     0.001986
      f+3     :     0.003210
      f-3     :     0.002764
  3 H s       :     0.821307  s :     0.821307
      pz      :     0.028563  p :     0.052227
      px      :     0.012380
      py      :     0.011284
  4 H s       :     0.673698  s :     0.673698
      pz      :     0.027251  p :     0.054784
      px      :     0.013158
      py      :     0.014374
  5 H s       :     0.826166  s :     0.826166
      pz      :     0.035854  p :     0.083024
      px      :     0.022971
      py      :     0.024199
  6 H s       :     0.807390  s :     0.807390
      pz      :     0.027691  p :     0.049124
      px      :     0.009948
      py      :     0.011485


                      *****************************
                      * MAYER POPULATION ANALYSIS *
                      *****************************

  NA   - Mulliken gross atomic population
  ZA   - Total nuclear charge
  QA   - Mulliken gross atomic charge
  VA   - Mayer's total valence
  BVA  - Mayer's bonded valence
  FA   - Mayer's free valence

  ATOM       NA         ZA         QA         VA         BVA        FA
  0 O      8.3578     8.0000    -0.3578     1.9173     1.9173     0.0000
  1 C      6.0774     6.0000    -0.0774     4.1485     4.1485    -0.0000
  2 C      6.2175     6.0000    -0.2175     3.5773     3.5773    -0.0000
  3 H      0.8963     1.0000     0.1037     0.9595     0.9595    -0.0000
  4 H      0.7518     1.0000     0.2482     0.9404     0.9404    -0.0000
  5 H      0.8357     1.0000     0.1643     0.9585     0.9585     0.0000
  6 H      0.8636     1.0000     0.1364     0.9706     0.9706     0.0000

  Mayer bond orders larger than 0.100000
B(  0-O ,  1-C ) :   1.3419 B(  0-O ,  2-C ) :   0.5045 B(  1-C ,  2-C ) :   1.0706 
B(  1-C ,  3-H ) :   0.9665 B(  1-C ,  4-H ) :   0.7487 B(  2-C ,  4-H ) :   0.1290 
B(  2-C ,  5-H ) :   0.9285 B(  2-C ,  6-H ) :   0.9524 

-------
TIMINGS
-------

Total SCF time: 0 days 0 hours 0 min 3 sec 

Total time                  ....       3.735 sec
Sum of individual times     ....       3.491 sec  ( 93.5%)

Fock matrix formation       ....       3.209 sec  ( 85.9%)
  Split-RI-J                ....       0.319 sec  (  9.9% of F)
  Chain of spheres X        ....       2.253 sec  ( 70.2% of F)
  XC integration            ....       0.602 sec  ( 18.8% of F)
    Basis function eval.    ....       0.163 sec  ( 27.0% of XC)
    Density eval.           ....       0.120 sec  ( 20.0% of XC)
    XC-Functional eval.     ....       0.036 sec  (  6.0% of XC)
    XC-Potential eval.      ....       0.199 sec  ( 33.1% of XC)
Diagonalization             ....       0.018 sec  (  0.5%)
Density matrix formation    ....       0.002 sec  (  0.1%)
Population analysis         ....       0.003 sec  (  0.1%)
Initial guess               ....       0.016 sec  (  0.4%)
Orbital Transformation      ....       0.000 sec  (  0.0%)
Orbital Orthonormalization  ....       0.000 sec  (  0.0%)
DIIS solution               ....       0.015 sec  (  0.4%)
SOSCF solution              ....       0.024 sec  (  0.7%)
Grid generation             ....       0.204 sec  (  5.5%)

Maximum memory used throughout the entire SCF-calculation: 61.0 MB


-------------------------------------------------------------------------------
                          DFT DISPERSION CORRECTION                            
                                                                               
                              DFTD3 V3.1  Rev 1                                
                          USING Becke-Johnson damping                          
-------------------------------------------------------------------------------
The PBE0 functional is recognized
Active option DFTDOPT                   ...         4   

molecular C6(AA) [au] = 396.383927 


            DFT-D V3
 parameters
 s6 scaling factor         :     1.0000 
 a1 scaling factor         :     0.4145 
 s8 scaling factor         :     1.2177 
 a2 scaling factor         :     4.8593 
 ad hoc parameters k1-k3   :    16.0000     1.3333    -4.0000 

 Edisp/kcal,au: -1.614564595546  -0.002572972186 
 E6   /kcal   :  -1.052456332 
 E8   /kcal   :  -0.562108264 
 % E8         :  34.814851353 

-------------------------   ----------------
Dispersion correction           -0.002572972
-------------------------   ----------------


-------------------------   --------------------
FINAL SINGLE POINT ENERGY      -153.472027652102
-------------------------   --------------------



           ************************************************************
           *        Program running with 8 parallel MPI-processes     *
           *              working on a common directory               *
           ************************************************************
------------------------------------------------------------------------------
                         ORCA SCF GRADIENT CALCULATION
------------------------------------------------------------------------------

 ... reading COSX grid (gridx3)
Gradient of the Kohn-Sham DFT energy:
Kohn-Sham wavefunction type      ... RKS
Hartree-Fock exchange scaling    ...    0.250
Number of operators              ...    1
Number of atoms                  ...    7
Basis set dimensions             ...  117
Integral neglect threshold       ... 2.5e-11
Integral primitive cutoff        ... 2.5e-12
SHARK Integral package           ... ON

Nuc. rep. gradient       (SHARK) ... done (  0.0 sec)
HCore & Overlap gradient (SHARK) ... done (  0.0 sec)
RI-J gradient            (SHARK) ... done (  0.1 sec)
COSX-gradient                    ... done (  0.4 sec)
Exchange-correlation gradient    ... done
Dispersion correction            ... done

------------------
CARTESIAN GRADIENT
------------------

   1   O   :    0.027579750   -0.053895893    0.043366548
   2   C   :   -0.021552697   -0.015430451   -0.042673708
   3   C   :    0.058145264    0.025218754   -0.104007951
   4   H   :   -0.032832658    0.032820649    0.027652841
   5   H   :   -0.019786383    0.013832413   -0.027991821
   6   H   :   -0.028490307    0.004973751    0.049536052
   7   H   :    0.017012908   -0.007462904    0.053986568

Difference to translation invariance:
           :    0.0000758776    0.0000563183   -0.0001314699

Difference to rotation invariance:
           :   -0.0001231070   -0.0002286927   -0.0001246931

Norm of the cartesian gradient     ...    0.1836856494
RMS gradient                       ...    0.0400834949
MAX gradient                       ...    0.1040079510

-------
TIMINGS
-------

Total SCF gradient time            ...        0.764 sec

One electron gradient       ....       0.010 sec  (  1.3%)
RI-J Coulomb gradient       ....       0.081 sec  ( 10.7%)
COSX gradient               ....       0.352 sec  ( 46.1%)
XC gradient                 ....       0.166 sec  ( 21.7%)

Maximum memory used throughout the entire SCFGRAD-calculation: 35.9 MB

                            ***************************************
                            *     ORCA property calculations      *
                            ***************************************

                                    ---------------------
                                    Active property flags
                                    ---------------------
   (+) Dipole Moment


------------------------------------------------------------------------------
                       ORCA ELECTRIC PROPERTIES CALCULATION
------------------------------------------------------------------------------

Dipole Moment Calculation                       ... on
Quadrupole Moment Calculation                   ... off
Polarizability Calculation                      ... off
GBWName                                         ... ox_gs_G_orca0008.gbw
Electron density                                ... ox_gs_G_orca0008.scfp
The origin for moment calculation is the CENTER OF MASS  = (-1.007767, -0.008541 -0.040515)

-------------
DIPOLE MOMENT
-------------
                                X             Y             Z
Electronic contribution:     -1.33117       1.65013      -0.40502
Nuclear contribution   :      2.07693      -2.59198       0.28619
                        -----------------------------------------
Total Dipole Moment    :      0.74576      -0.94185      -0.11883
                        -----------------------------------------
Magnitude (a.u.)       :      1.20721
Magnitude (Debye)      :      3.06848



--------------------
Rotational spectrum 
--------------------
 
Rotational constants in cm-1:     1.729268     0.303610     0.291148 
Rotational constants in MHz : 51842.142901  9101.987587  8728.407012 

 Dipole components along the rotational axes: 
x,y,z [a.u.] :     1.064044    -0.444803    -0.356812 
x,y,z [Debye]:     2.704585    -1.130599    -0.906943 

 

Timings for individual modules:

Sum of individual times         ...        5.139 sec (=   0.086 min)
GTO integral calculation        ...        0.279 sec (=   0.005 min)   5.4 %
SCF iterations                  ...        3.905 sec (=   0.065 min)  76.0 %
SCF Gradient evaluation         ...        0.955 sec (=   0.016 min)  18.6 %
                             ****ORCA TERMINATED NORMALLY****
TOTAL RUN TIME: 0 days 0 hours 0 minutes 5 seconds 402 msec
