
                                 *****************
                                 * O   R   C   A *
                                 *****************

                                            #,                                       
                                            ###                                      
                                            ####                                     
                                            #####                                    
                                            ######                                   
                                           ########,                                 
                                     ,,################,,,,,                         
                               ,,#################################,,                 
                          ,,##########################################,,             
                       ,#########################################, ''#####,          
                    ,#############################################,,   '####,        
                  ,##################################################,,,,####,       
                ,###########''''           ''''###############################       
              ,#####''   ,,,,##########,,,,          '''####'''          '####       
            ,##' ,,,,###########################,,,                        '##       
           ' ,,###''''                  '''############,,,                           
         ,,##''                                '''############,,,,        ,,,,,,###''
      ,#''                                            '''#######################'''  
     '                                                          ''''####''''         
             ,#######,   #######,   ,#######,      ##                                
            ,#'     '#,  ##    ##  ,#'     '#,    #''#        ######   ,####,        
            ##       ##  ##   ,#'  ##            #'  '#       #        #'  '#        
            ##       ##  #######   ##           ,######,      #####,   #    #        
            '#,     ,#'  ##    ##  '#,     ,#' ,#      #,         ##   #,  ,#        
             '#######'   ##     ##  '#######'  #'      '#     #####' # '####'        



                  #######################################################
                  #                        -***-                        #
                  #          Department of theory and spectroscopy      #
                  #    Directorship and core code : Frank Neese         #
                  #        Max Planck Institute fuer Kohlenforschung    #
                  #                Kaiser Wilhelm Platz 1               #
                  #                 D-45470 Muelheim/Ruhr               #
                  #                      Germany                        #
                  #                                                     #
                  #                  All rights reserved                #
                  #                        -***-                        #
                  #######################################################


                         Program Version 5.0.2 -  RELEASE  -


 With contributions from (in alphabetic order):
   Daniel Aravena         : Magnetic Suceptibility
   Michael Atanasov       : Ab Initio Ligand Field Theory (pilot matlab implementation)
   Alexander A. Auer      : GIAO ZORA, VPT2 properties, NMR spectrum
   Ute Becker             : Parallelization
   Giovanni Bistoni       : ED, misc. LED, open-shell LED, HFLD
   Martin Brehm           : Molecular dynamics
   Dmytro Bykov           : SCF Hessian
   Vijay G. Chilkuri      : MRCI spin determinant printing, contributions to CSF-ICE
   Dipayan Datta          : RHF DLPNO-CCSD density
   Achintya Kumar Dutta   : EOM-CC, STEOM-CC
   Dmitry Ganyushin       : Spin-Orbit,Spin-Spin,Magnetic field MRCI
   Miquel Garcia          : C-PCM and meta-GGA Hessian, CC/C-PCM, Gaussian charge scheme
   Yang Guo               : DLPNO-NEVPT2, F12-NEVPT2, CIM, IAO-localization
   Andreas Hansen         : Spin unrestricted coupled pair/coupled cluster methods
   Benjamin Helmich-Paris : MC-RPA, TRAH-SCF, COSX integrals
   Lee Huntington         : MR-EOM, pCC
   Robert Izsak           : Overlap fitted RIJCOSX, COSX-SCS-MP3, EOM
   Marcus Kettner         : VPT2
   Christian Kollmar      : KDIIS, OOCD, Brueckner-CCSD(T), CCSD density, CASPT2, CASPT2-K
   Simone Kossmann        : Meta GGA functionals, TD-DFT gradient, OOMP2, MP2 Hessian
   Martin Krupicka        : Initial AUTO-CI
   Lucas Lang             : DCDCAS
   Marvin Lechner         : AUTO-CI (C++ implementation), FIC-MRCC
   Dagmar Lenk            : GEPOL surface, SMD
   Dimitrios Liakos       : Extrapolation schemes; Compound Job, initial MDCI parallelization
   Dimitrios Manganas     : Further ROCIS development; embedding schemes
   Dimitrios Pantazis     : SARC Basis sets
   Anastasios Papadopoulos: AUTO-CI, single reference methods and gradients
   Taras Petrenko         : DFT Hessian,TD-DFT gradient, ASA, ECA, R-Raman, ABS, FL, XAS/XES, NRVS
   Peter Pinski           : DLPNO-MP2, DLPNO-MP2 Gradient
   Christoph Reimann      : Effective Core Potentials
   Marius Retegan         : Local ZFS, SOC
   Christoph Riplinger    : Optimizer, TS searches, QM/MM, DLPNO-CCSD(T), (RO)-DLPNO pert. Triples
   Tobias Risthaus        : Range-separated hybrids, TD-DFT gradient, RPA, STAB
   Michael Roemelt        : Original ROCIS implementation
   Masaaki Saitow         : Open-shell DLPNO-CCSD energy and density
   Barbara Sandhoefer     : DKH picture change effects
   Avijit Sen             : IP-ROCIS
   Kantharuban Sivalingam : CASSCF convergence, NEVPT2, FIC-MRCI
   Bernardo de Souza      : ESD, SOC TD-DFT
   Georgi Stoychev        : AutoAux, RI-MP2 NMR, DLPNO-MP2 response
   Willem Van den Heuvel  : Paramagnetic NMR
   Boris Wezisla          : Elementary symmetry handling
   Frank Wennmohs         : Technical directorship


 We gratefully acknowledge several colleagues who have allowed us to
 interface, adapt or use parts of their codes:
   Stefan Grimme, W. Hujo, H. Kruse, P. Pracht,  : VdW corrections, initial TS optimization,
                  C. Bannwarth, S. Ehlert          DFT functionals, gCP, sTDA/sTD-DF
   Ed Valeev, F. Pavosevic, A. Kumar             : LibInt (2-el integral package), F12 methods
   Garnet Chan, S. Sharma, J. Yang, R. Olivares  : DMRG
   Ulf Ekstrom                                   : XCFun DFT Library
   Mihaly Kallay                                 : mrcc  (arbitrary order and MRCC methods)
   Jiri Pittner, Ondrej Demel                    : Mk-CCSD
   Frank Weinhold                                : gennbo (NPA and NBO analysis)
   Christopher J. Cramer and Donald G. Truhlar   : smd solvation model
   Lars Goerigk                                  : TD-DFT with DH, B97 family of functionals
   V. Asgeirsson, H. Jonsson                     : NEB implementation
   FAccTs GmbH                                   : IRC, NEB, NEB-TS, DLPNO-Multilevel, CI-OPT
                                                   MM, QMMM, 2- and 3-layer-ONIOM, Crystal-QMMM,
                                                   LR-CPCM, SF, NACMEs, symmetry and pop. for TD-DFT,
                                                   nearIR, NL-DFT gradient (VV10), updates on ESD,
                                                   ML-optimized integration grids
   S Lehtola, MJT Oliveira, MAL Marques          : LibXC Library
   Liviu Ungur et al                             : ANISO software


 Your calculation uses the libint2 library for the computation of 2-el integrals
 For citations please refer to: http://libint.valeyev.net

 Your ORCA version has been built with support for libXC version: 5.1.0
 For citations please refer to: https://tddft.org/programs/libxc/

 This ORCA versions uses:
   CBLAS   interface :  Fast vector & matrix operations
   LAPACKE interface :  Fast linear algebra routines
   SCALAPACK package :  Parallel linear algebra routines
   Shared memory     :  Shared parallel matrices
   BLAS/LAPACK       :  OpenBLAS 0.3.15  USE64BITINT DYNAMIC_ARCH NO_AFFINITY SkylakeX SINGLE_THREADED
        Core in use  :  SkylakeX
   Copyright (c) 2011-2014, The OpenBLAS Project


Your calculation utilizes the atom-pairwise dispersion correction
with the Becke-Johnson damping scheme (D3BJ)
Cite in your paper:
S.Grimme, S.Ehrlich, L.Goerigk, J Comput Chem, (2011), 32, 1456–1465 
S.Grimme, J.Antony, S.Ehrlich and H.Krieg, J.Chem.Phys., 132, (2010), 154104 
   

================================================================================

----- Orbital basis set information -----
Your calculation utilizes the basis: def2-TZVP
   F. Weigend and R. Ahlrichs, Phys. Chem. Chem. Phys. 7, 3297 (2005).

----- AuxJ basis set information -----
Your calculation utilizes the auxiliary basis: def2/J
   F. Weigend, Phys. Chem. Chem. Phys. 8, 1057 (2006).

================================================================================
                                        WARNINGS
                       Please study these warnings very carefully!
================================================================================


INFO   : the flag for use of the SHARK integral package has been found!

================================================================================
                                       INPUT FILE
================================================================================
NAME = ox_gs_E_orca0006.inp
|  1> ! engrad PBE0 D3BJ def2-TZVP  
|  2> %pal nprocs 8 end
|  3> %maxcore 3000
|  4>  
|  5> *xyz 0 1 
|  6> O   -0.957567703664909 0.9325121407919515 -0.07803755440679327
|  7> C   -0.7812512476798066 -0.41817538684296923 -0.02742526310124387
|  8> C   0.6836801404388502 -0.3363199090153246 0.007246154807632728
|  9> H   -1.3386301598028205 -0.6559817948114611 0.9526668607322606
| 10> H   -1.3203392159944 -0.6862627604943607 -0.9498083974239409
| 11> H   1.2037504380285784 -0.7866538016346413 -1.0494707855298342
| 12> H   1.2555607036255283 -0.6659287760436609 0.9897675468019387
| 13> *
| 14> 
| 15>                          ****END OF INPUT****
================================================================================

                     *******************************
                     * Energy+Gradient Calculation *
                     *******************************

---------------------------------
CARTESIAN COORDINATES (ANGSTROEM)
---------------------------------
  O     -0.957568    0.932512   -0.078038
  C     -0.781251   -0.418175   -0.027425
  C      0.683680   -0.336320    0.007246
  H     -1.338630   -0.655982    0.952667
  H     -1.320339   -0.686263   -0.949808
  H      1.203750   -0.786654   -1.049471
  H      1.255561   -0.665929    0.989768

----------------------------
CARTESIAN COORDINATES (A.U.)
----------------------------
  NO LB      ZA    FRAG     MASS         X           Y           Z
   0 O     8.0000    0    15.999   -1.809541    1.762193   -0.147470
   1 C     6.0000    0    12.011   -1.476351   -0.790237   -0.051826
   2 C     6.0000    0    12.011    1.291968   -0.635553    0.013693
   3 H     1.0000    0     1.008   -2.529644   -1.239626    1.800279
   4 H     1.0000    0     1.008   -2.495080   -1.296849   -1.794878
   5 H     1.0000    0     1.008    2.274759   -1.486560   -1.983212
   6 H     1.0000    0     1.008    2.372666   -1.258423    1.870390

--------------------------------
INTERNAL COORDINATES (ANGSTROEM)
--------------------------------
 O      0   0   0     0.000000000000     0.00000000     0.00000000
 C      1   0   0     1.363086898914     0.00000000     0.00000000
 C      2   1   0     1.467626109868    94.28535360     0.00000000
 H      2   1   3     1.152303653796    99.99201129   119.74185767
 H      2   1   3     1.101488685360    98.43994956   237.30357425
 H      3   2   1     1.260922052021   111.83761526   247.89431577
 H      3   2   1     1.183654370794   119.10028441   112.46209418

---------------------------
INTERNAL COORDINATES (A.U.)
---------------------------
 O      0   0   0     0.000000000000     0.00000000     0.00000000
 C      1   0   0     2.575860935683     0.00000000     0.00000000
 C      2   1   0     2.773411414642    94.28535360     0.00000000
 H      2   1   3     2.177538328791    99.99201129   119.74185767
 H      2   1   3     2.081511954943    98.43994956   237.30357425
 H      3   2   1     2.382797354542   111.83761526   247.89431577
 H      3   2   1     2.236782598020   119.10028441   112.46209418

---------------------
BASIS SET INFORMATION
---------------------
There are 3 groups of distinct atoms

 Group   1 Type O   : 11s6p2d1f contracted to 5s3p2d1f pattern {62111/411/11/1}
 Group   2 Type C   : 11s6p2d1f contracted to 5s3p2d1f pattern {62111/411/11/1}
 Group   3 Type H   : 5s1p contracted to 3s1p pattern {311/1}

Atom   0O    basis set group =>   1
Atom   1C    basis set group =>   2
Atom   2C    basis set group =>   2
Atom   3H    basis set group =>   3
Atom   4H    basis set group =>   3
Atom   5H    basis set group =>   3
Atom   6H    basis set group =>   3
---------------------------------
AUXILIARY/J BASIS SET INFORMATION
---------------------------------
There are 3 groups of distinct atoms

 Group   1 Type O   : 12s5p4d2f1g contracted to 6s4p3d1f1g pattern {711111/2111/211/2/1}
 Group   2 Type C   : 12s5p4d2f1g contracted to 6s4p3d1f1g pattern {711111/2111/211/2/1}
 Group   3 Type H   : 5s2p1d contracted to 3s1p1d pattern {311/2/1}

Atom   0O    basis set group =>   1
Atom   1C    basis set group =>   2
Atom   2C    basis set group =>   2
Atom   3H    basis set group =>   3
Atom   4H    basis set group =>   3
Atom   5H    basis set group =>   3
Atom   6H    basis set group =>   3


           ************************************************************
           *        Program running with 8 parallel MPI-processes     *
           *              working on a common directory               *
           ************************************************************
------------------------------------------------------------------------------
                           ORCA GTO INTEGRAL CALCULATION
                           -- RI-GTO INTEGRALS CHOSEN --
------------------------------------------------------------------------------
------------------------------------------------------------------------------
                   ___                                                        
                  /   \      - P O W E R E D   B Y -                         
                 /     \                                                     
                 |  |  |   _    _      __       _____    __    __             
                 |  |  |  | |  | |    /  \     |  _  \  |  |  /  |          
                  \  \/   | |  | |   /    \    | | | |  |  | /  /          
                 / \  \   | |__| |  /  /\  \   | |_| |  |  |/  /          
                |  |  |   |  __  | /  /__\  \  |    /   |      \           
                |  |  |   | |  | | |   __   |  |    \   |  |\   \          
                \     /   | |  | | |  |  |  |  | |\  \  |  | \   \       
                 \___/    |_|  |_| |__|  |__|  |_| \__\ |__|  \__/        
                                                                              
                      - O R C A' S   B I G   F R I E N D -                    
                                      &                                       
                       - I N T E G R A L  F E E D E R -                       
                                                                              
 v1 FN, 2020, v2 2021                                                         
------------------------------------------------------------------------------


Reading SHARK input file ox_gs_E_orca0006.SHARKINP.tmp ... ok
----------------------
SHARK INTEGRAL PACKAGE
----------------------

Number of atoms                             ...      7
Number of basis functions                   ...    117
Number of shells                            ...     49
Maximum angular momentum                    ...      3
Integral batch strategy                     ... SHARK/LIBINT Hybrid
RI-J (if used) integral strategy            ... SPLIT-RIJ (Revised 2003 algorithm where possible)
Printlevel                                  ...      1
Contraction scheme used                     ... SEGMENTED contraction
Coulomb Range Separation                    ... NOT USED
Exchange Range Separation                   ... NOT USED
Finite Nucleus Model                        ... NOT USED
Auxiliary Coulomb fitting basis             ... AVAILABLE
   # of basis functions in Aux-J            ...    191
   # of shells in Aux-J                     ...     65
   Maximum angular momentum in Aux-J        ...      4
Auxiliary J/K fitting basis                 ... NOT available
Auxiliary Correlation fitting basis         ... NOT available
Auxiliary 'external' fitting basis          ... NOT available
Integral threshold                          ...     2.500000e-11
Primitive cut-off                           ...     2.500000e-12
Primitive pair pre-selection threshold      ...     2.500000e-12

Calculating pre-screening integrals         ... done (  0.0 sec) Dimension = 49
Organizing shell pair data                  ... done (  0.0 sec)
Shell pair information
Total number of shell pairs                 ...      1225
Shell pairs after pre-screening             ...      1214
Total number of primitive shell pairs       ...      3648
Primitive shell pairs kept                  ...      3080
          la=0 lb=0:    368 shell pairs
          la=1 lb=0:    351 shell pairs
          la=1 lb=1:     91 shell pairs
          la=2 lb=0:    161 shell pairs
          la=2 lb=1:     78 shell pairs
          la=2 lb=2:     21 shell pairs
          la=3 lb=0:     81 shell pairs
          la=3 lb=1:     39 shell pairs
          la=3 lb=2:     18 shell pairs
          la=3 lb=3:      6 shell pairs

Calculating one electron integrals          ... done (  0.0 sec)
Calculating RI/J V-Matrix + Cholesky decomp.... done (  0.0 sec)
Calculating Nuclear repulsion               ... done (  0.0 sec) ENN=     68.915533033577 Eh

SHARK setup successfully completed in   0.1 seconds

Maximum memory used throughout the entire GTOINT-calculation: 14.9 MB


           ************************************************************
           *        Program running with 8 parallel MPI-processes     *
           *              working on a common directory               *
           ************************************************************
-------------------------------------------------------------------------------
                                 ORCA SCF
-------------------------------------------------------------------------------

------------
SCF SETTINGS
------------
Hamiltonian:
 Density Functional     Method          .... DFT(GTOs)
 Exchange Functional    Exchange        .... PBE
   PBE kappa parameter   XKappa         ....  0.804000
   PBE mue parameter    XMuePBE         ....  0.219520
 Correlation Functional Correlation     .... PBE
   PBE beta parameter  CBetaPBE         ....  0.066725
 LDA part of GGA corr.  LDAOpt          .... PW91-LDA
 Gradients option       PostSCFGGA      .... off
 Hybrid DFT is turned on
   Fraction HF Exchange ScalHFX         ....  0.250000
   Scaling of DF-GGA-X  ScalDFX         ....  0.750000
   Scaling of DF-GGA-C  ScalDFC         ....  1.000000
   Scaling of DF-LDA-C  ScalLDAC        ....  1.000000
   Perturbative correction              ....  0.000000
   Density functional embedding theory  .... OFF
   NL short-range parameter             ....  6.900000
 RI-approximation to the Coulomb term is turned on
   Number of AuxJ basis functions       .... 191
   RIJ-COSX (HFX calculated with COS-X)).... on


General Settings:
 Integral files         IntName         .... ox_gs_E_orca0006
 Hartree-Fock type      HFTyp           .... RHF
 Total Charge           Charge          ....    0
 Multiplicity           Mult            ....    1
 Number of Electrons    NEL             ....   24
 Basis Dimension        Dim             ....  117
 Nuclear Repulsion      ENuc            ....     68.9155330336 Eh

Convergence Acceleration:
 DIIS                   CNVDIIS         .... on
   Start iteration      DIISMaxIt       ....    12
   Startup error        DIISStart       ....  0.200000
   # of expansion vecs  DIISMaxEq       ....     5
   Bias factor          DIISBfac        ....   1.050
   Max. coefficient     DIISMaxC        ....  10.000
 Trust-Rad. Augm. Hess. CNVTRAH         .... auto
   Auto Start mean grad. ratio tolernc. ....  1.125000
   Auto Start start iteration           ....    20
   Auto Start num. interpolation iter.  ....    10
   Max. Number of Micro iterations      ....    16
   Max. Number of Macro iterations      .... Maxiter - #DIIS iter
   Number of Davidson start vectors     ....     2
   Converg. threshold I  (grad. norm)   ....   1.000e-05
   Converg. threshold II (energy diff.) ....   1.000e-08
   Grad. Scal. Fac. for Micro threshold ....   0.100
   Minimum threshold for Micro iter.    ....   0.010
   NR start threshold (gradient norm)   ....   0.001
   Initial trust radius                 ....   0.400
   Minimum AH scaling param. (alpha)    ....   1.000
   Maximum AH scaling param. (alpha)    .... 1000.000
   Orbital update algorithm             .... Taylor
   White noise on init. David. guess    .... on
   Maximum white noise                  ....   0.010
   Quad. conv. algorithm                .... NR
 SOSCF                  CNVSOSCF        .... on
   Start iteration      SOSCFMaxIt      ....   150
   Startup grad/error   SOSCFStart      ....  0.003300
 Level Shifting         CNVShift        .... on
   Level shift para.    LevelShift      ....    0.2500
   Turn off err/grad.   ShiftErr        ....    0.0010
 Zerner damping         CNVZerner       .... off
 Static damping         CNVDamp         .... on
   Fraction old density DampFac         ....    0.7000
   Max. Damping (<1)    DampMax         ....    0.9800
   Min. Damping (>=0)   DampMin         ....    0.0000
   Turn off err/grad.   DampErr         ....    0.1000
 Fernandez-Rico         CNVRico         .... off

SCF Procedure:
 Maximum # iterations   MaxIter         ....   125
 SCF integral mode      SCFMode         .... Direct
   Integral package                     .... SHARK and LIBINT hybrid scheme
 Reset frequency        DirectResetFreq ....    20
 Integral Threshold     Thresh          ....  2.500e-11 Eh
 Primitive CutOff       TCut            ....  2.500e-12 Eh

Convergence Tolerance:
 Convergence Check Mode ConvCheckMode   .... Total+1el-Energy
 Convergence forced     ConvForced      .... 0
 Energy Change          TolE            ....  1.000e-08 Eh
 1-El. energy change                    ....  1.000e-05 Eh
 Orbital Gradient       TolG            ....  1.000e-05
 Orbital Rotation angle TolX            ....  1.000e-05
 DIIS Error             TolErr          ....  5.000e-07


Diagonalization of the overlap matrix:
Smallest eigenvalue                        ... 4.692e-04
Time for diagonalization                   ...    0.001 sec
Threshold for overlap eigenvalues          ... 1.000e-08
Number of eigenvalues below threshold      ... 0
Time for construction of square roots      ...    0.001 sec
Total time needed                          ...    0.003 sec

Time for model grid setup =    0.021 sec

------------------------------
INITIAL GUESS: MODEL POTENTIAL
------------------------------
Loading Hartree-Fock densities                     ... done
Calculating cut-offs                               ... done
Initializing the effective Hamiltonian             ... done
Setting up the integral package (SHARK)            ... done
Starting the Coulomb interaction                   ... done (   0.0 sec)
Reading the grid                                   ... done
Mapping shells                                     ... done
Starting the XC term evaluation                    ... done (   0.0 sec)
  promolecular density results
     # of electrons  =     23.998637467
     EX              =    -19.430223595
     EC              =     -0.763719747
     EX+EC           =    -20.193943342
Transforming the Hamiltonian                       ... done (   0.0 sec)
Diagonalizing the Hamiltonian                      ... done (   0.0 sec)
Back transforming the eigenvectors                 ... done (   0.0 sec)
Now organizing SCF variables                       ... done
                      ------------------
                      INITIAL GUESS DONE (   0.0 sec)
                      ------------------
-------------------
DFT GRID GENERATION
-------------------

General Integration Accuracy     IntAcc      ... 4.388
Radial Grid Type                 RadialGrid  ... OptM3 with GC (2021)
Angular Grid (max. ang.)         AngularGrid ... 4 (Lebedev-302)
Angular grid pruning method      GridPruning ... 4 (adaptive)
Weight generation scheme         WeightScheme... Becke
Basis function cutoff            BFCut       ... 1.0000e-11
Integration weight cutoff        WCut        ... 1.0000e-14
Angular grids for H and He will be reduced by one unit
Partially contracted basis set               ... off
Rotationally invariant grid construction     ... off

Total number of grid points                  ...    31340
Total number of batches                      ...      492
Average number of points per batch           ...       63
Average number of grid points per atom       ...     4477
Time for grid setup =    0.112 sec

--------------------
COSX GRID GENERATION
--------------------

GRIDX 1
-------
General Integration Accuracy     IntAcc      ... 3.816
Radial Grid Type                 RadialGrid  ... OptM3 with GC (2021)
Angular Grid (max. ang.)         AngularGrid ... 1 (Lebedev-50)
Angular grid pruning method      GridPruning ... 4 (adaptive)
Weight generation scheme         WeightScheme... Becke
Basis function cutoff            BFCut       ... 1.0000e-11
Integration weight cutoff        WCut        ... 1.0000e-14
Angular grids for H and He will be reduced by one unit
Partially contracted basis set               ... on
Rotationally invariant grid construction     ... off

Total number of grid points                  ...     4038
Total number of batches                      ...       68
Average number of points per batch           ...       59
Average number of grid points per atom       ...      577
UseSFitting                                  ... on

GRIDX 2
-------
General Integration Accuracy     IntAcc      ... 4.020
Radial Grid Type                 RadialGrid  ... OptM3 with GC (2021)
Angular Grid (max. ang.)         AngularGrid ... 2 (Lebedev-110)
Angular grid pruning method      GridPruning ... 4 (adaptive)
Weight generation scheme         WeightScheme... Becke
Basis function cutoff            BFCut       ... 1.0000e-11
Integration weight cutoff        WCut        ... 1.0000e-14
Angular grids for H and He will be reduced by one unit
Partially contracted basis set               ... on
Rotationally invariant grid construction     ... off

Total number of grid points                  ...     8735
Total number of batches                      ...      140
Average number of points per batch           ...       62
Average number of grid points per atom       ...     1248
UseSFitting                                  ... on

GRIDX 3
-------
General Integration Accuracy     IntAcc      ... 4.338
Radial Grid Type                 RadialGrid  ... OptM3 with GC (2021)
Angular Grid (max. ang.)         AngularGrid ... 3 (Lebedev-194)
Angular grid pruning method      GridPruning ... 4 (adaptive)
Weight generation scheme         WeightScheme... Becke
Basis function cutoff            BFCut       ... 1.0000e-11
Integration weight cutoff        WCut        ... 1.0000e-14
Angular grids for H and He will be reduced by one unit
Partially contracted basis set               ... on
Rotationally invariant grid construction     ... off

Total number of grid points                  ...    19275
Total number of batches                      ...      305
Average number of points per batch           ...       63
Average number of grid points per atom       ...     2754
UseSFitting                                  ... on

Time for X-Grid setup             =    0.072 sec

--------------
SCF ITERATIONS
--------------
ITER       Energy         Delta-E        Max-DP      RMS-DP      [F,P]     Damp
               ***  Starting incremental Fock matrix formation  ***
  0   -153.3393028002   0.000000000000 0.09685944  0.00256582  0.3498697 0.7000
  1   -153.4438661619  -0.104563361697 0.05787940  0.00140954  0.0890278 0.7000
                               ***Turning on DIIS***
  2   -153.4581274735  -0.014261311619 0.04490814  0.00186263  0.0648923 0.0000
  3   -153.5212641243  -0.063136650785 0.02846219  0.00114068  0.0390063 0.0000
  4   -153.5235875621  -0.002323437794 0.01168115  0.00038302  0.0585642 0.0000
  5   -153.5269226441  -0.003335081946 0.00427414  0.00014030  0.0171823 0.0000
  6   -153.5272308457  -0.000308201619 0.00172177  0.00005357  0.0055768 0.0000
                      *** Initiating the SOSCF procedure ***
                           *** Shutting down DIIS ***
                      *** Re-Reading the Fockian *** 
                      *** Removing any level shift *** 
ITER      Energy       Delta-E        Grad      Rot      Max-DP    RMS-DP
  7   -153.52726000  -0.0000291552  0.000443  0.000443  0.001176  0.000047
               *** Restarting incremental Fock matrix formation ***
  8   -153.52725707   0.0000029307  0.000539  0.003680  0.001962  0.000052
  9   -153.52723270   0.0000243724  0.002258  0.003262  0.001768  0.000041
 10   -153.52725956  -0.0000268575  0.000092  0.000328  0.000200  0.000009
 11   -153.52725951   0.0000000424  0.000131  0.000134  0.000117  0.000004
 12   -153.52725981  -0.0000002962  0.000019  0.000180  0.000056  0.000002
 13   -153.52725982  -0.0000000117  0.000010  0.000206  0.000065  0.000002
                  ***Gradient check signals convergence***
              ***Rediagonalizing the Fockian in SOSCF/NRSCF***

               *****************************************************
               *                     SUCCESS                       *
               *           SCF CONVERGED AFTER  14 CYCLES          *
               *****************************************************

Old exchange energy                            =     -4.933720431 Eh
New exchange energy                            =     -4.933723218 Eh
Exchange energy change after final integration =     -0.000002786 Eh
Total energy after final integration           =   -153.527262611 Eh
Final COS-X integration done in                =     0.306 sec

----------------
TOTAL SCF ENERGY
----------------

Total Energy       :         -153.52726261 Eh           -4177.68921 eV

Components:
Nuclear Repulsion  :           68.91553303 Eh            1875.28699 eV
Electronic Energy  :         -222.44279565 Eh           -6052.97620 eV
One Electron Energy:         -344.64355213 Eh           -9378.22783 eV
Two Electron Energy:          122.20075649 Eh            3325.25164 eV
Max COSX asymmetry :            0.00000081 Eh               0.00002 eV

Virial components:
Potential Energy   :         -305.99119159 Eh           -8326.44363 eV
Kinetic Energy     :          152.46392898 Eh            4148.75443 eV
Virial Ratio       :            2.00697433


DFT components:
N(Alpha)           :       12.000002703446 electrons
N(Beta)            :       12.000002703446 electrons
N(Total)           :       24.000005406892 electrons
E(X)               :      -14.819569897573 Eh       
E(C)               :       -0.771165968488 Eh       
E(XC)              :      -15.590735866061 Eh       
DFET-embed. en.    :        0.000000000000 Eh       

---------------
SCF CONVERGENCE
---------------

  Last Energy change         ...   -4.3325e-09  Tolerance :   1.0000e-08
  Last MAX-Density change    ...    7.7716e-16  Tolerance :   1.0000e-07
  Last RMS-Density change    ...    1.8934e-17  Tolerance :   5.0000e-09
  Last Orbital Gradient      ...    1.6881e-06  Tolerance :   1.0000e-05
  Last Orbital Rotation      ...    1.0134e-05  Tolerance :   1.0000e-05

             **** THE GBW FILE WAS UPDATED (ox_gs_E_orca0006.gbw) ****
             **** DENSITY ox_gs_E_orca0006.scfp WAS UPDATED ****
             **** ENERGY FILE WAS UPDATED (ox_gs_E_orca0006.en.tmp) ****
             **** THE GBW FILE WAS UPDATED (ox_gs_E_orca0006.gbw) ****
             **** DENSITY ox_gs_E_orca0006.scfp WAS UPDATED ****
----------------
ORBITAL ENERGIES
----------------

  NO   OCC          E(Eh)            E(eV) 
   0   2.0000     -19.211237      -522.7643 
   1   2.0000     -10.338462      -281.3238 
   2   2.0000     -10.275147      -279.6010 
   3   2.0000      -1.030985       -28.0545 
   4   2.0000      -0.749538       -20.3960 
   5   2.0000      -0.605186       -16.4680 
   6   2.0000      -0.506016       -13.7694 
   7   2.0000      -0.481648       -13.1063 
   8   2.0000      -0.410117       -11.1599 
   9   2.0000      -0.400379       -10.8949 
  10   2.0000      -0.284602        -7.7444 
  11   2.0000      -0.259942        -7.0734 
  12   0.0000      -0.137887        -3.7521 
  13   0.0000       0.032620         0.8876 
  14   0.0000       0.060394         1.6434 
  15   0.0000       0.079335         2.1588 
  16   0.0000       0.133030         3.6199 
  17   0.0000       0.143119         3.8945 
  18   0.0000       0.182261         4.9596 
  19   0.0000       0.190886         5.1943 
  20   0.0000       0.237298         6.4572 
  21   0.0000       0.252365         6.8672 
  22   0.0000       0.272687         7.4202 
  23   0.0000       0.330378         8.9900 
  24   0.0000       0.344003         9.3608 
  25   0.0000       0.365374         9.9423 
  26   0.0000       0.385280        10.4840 
  27   0.0000       0.394365        10.7312 
  28   0.0000       0.421540        11.4707 
  29   0.0000       0.474970        12.9246 
  30   0.0000       0.477349        12.9893 
  31   0.0000       0.538755        14.6603 
  32   0.0000       0.555588        15.1183 
  33   0.0000       0.604497        16.4492 
  34   0.0000       0.697908        18.9910 
  35   0.0000       0.735219        20.0063 
  36   0.0000       0.789006        21.4699 
  37   0.0000       0.863374        23.4936 
  38   0.0000       0.886642        24.1268 
  39   0.0000       0.913481        24.8571 
  40   0.0000       0.931575        25.3495 
  41   0.0000       1.041349        28.3365 
  42   0.0000       1.061946        28.8970 
  43   0.0000       1.080879        29.4122 
  44   0.0000       1.162263        31.6268 
  45   0.0000       1.314416        35.7671 
  46   0.0000       1.411824        38.4177 
  47   0.0000       1.427278        38.8382 
  48   0.0000       1.525351        41.5069 
  49   0.0000       1.538970        41.8775 
  50   0.0000       1.558655        42.4132 
  51   0.0000       1.575700        42.8770 
  52   0.0000       1.608358        43.7657 
  53   0.0000       1.673706        45.5439 
  54   0.0000       1.707477        46.4628 
  55   0.0000       1.731394        47.1136 
  56   0.0000       1.793879        48.8139 
  57   0.0000       1.804345        49.0987 
  58   0.0000       1.892022        51.4845 
  59   0.0000       1.898135        51.6509 
  60   0.0000       1.972605        53.6773 
  61   0.0000       2.009648        54.6853 
  62   0.0000       2.087713        56.8096 
  63   0.0000       2.252524        61.2943 
  64   0.0000       2.296254        62.4843 
  65   0.0000       2.319770        63.1242 
  66   0.0000       2.346462        63.8505 
  67   0.0000       2.402996        65.3888 
  68   0.0000       2.444823        66.5270 
  69   0.0000       2.479669        67.4752 
  70   0.0000       2.498088        67.9764 
  71   0.0000       2.546579        69.2959 
  72   0.0000       2.569027        69.9068 
  73   0.0000       2.659304        72.3633 
  74   0.0000       2.705241        73.6134 
  75   0.0000       2.795170        76.0604 
  76   0.0000       2.911571        79.2279 
  77   0.0000       2.965415        80.6930 
  78   0.0000       2.978276        81.0430 
  79   0.0000       3.019328        82.1601 
  80   0.0000       3.035425        82.5981 
  81   0.0000       3.087798        84.0232 
  82   0.0000       3.114351        84.7458 
  83   0.0000       3.143979        85.5520 
  84   0.0000       3.171480        86.3003 
  85   0.0000       3.218590        87.5823 
  86   0.0000       3.290046        89.5267 
  87   0.0000       3.321895        90.3934 
  88   0.0000       3.441432        93.6461 
  89   0.0000       3.526145        95.9513 
  90   0.0000       3.574660        97.2714 
  91   0.0000       3.610788        98.2545 
  92   0.0000       3.680256       100.1449 
  93   0.0000       3.796101       103.2972 
  94   0.0000       3.837168       104.4146 
  95   0.0000       4.041002       109.9613 
  96   0.0000       4.091190       111.3269 
  97   0.0000       4.161636       113.2439 
  98   0.0000       4.245665       115.5304 
  99   0.0000       4.410831       120.0248 
 100   0.0000       4.482159       121.9658 
 101   0.0000       4.709962       128.1646 
 102   0.0000       5.196988       141.4172 
 103   0.0000       5.252211       142.9199 
 104   0.0000       5.419501       147.4721 
 105   0.0000       5.432782       147.8335 
 106   0.0000       5.858983       159.4310 
 107   0.0000       5.873070       159.8144 
 108   0.0000       6.004048       163.3785 
 109   0.0000       6.388602       173.8427 
 110   0.0000       6.439780       175.2353 
 111   0.0000       6.835502       186.0035 
 112   0.0000       6.862641       186.7420 
 113   0.0000       6.945312       188.9915 
 114   0.0000      21.830262       594.0316 
 115   0.0000      22.484873       611.8445 
 116   0.0000      43.771987      1191.0963 

                    ********************************
                    * MULLIKEN POPULATION ANALYSIS *
                    ********************************

-----------------------
MULLIKEN ATOMIC CHARGES
-----------------------
   0 O :   -0.344673
   1 C :   -0.035571
   2 C :   -0.175214
   3 H :    0.098039
   4 H :    0.113533
   5 H :    0.167227
   6 H :    0.176658
Sum of atomic charges:   -0.0000000

--------------------------------
MULLIKEN REDUCED ORBITAL CHARGES
--------------------------------
  0 O s       :     3.901137  s :     3.901137
      pz      :     1.895861  p :     4.414839
      px      :     1.184993
      py      :     1.333985
      dz2     :     0.003455  d :     0.027262
      dxz     :     0.000342
      dyz     :     0.006439
      dx2y2   :     0.009676
      dxy     :     0.007350
      f0      :     0.000180  f :     0.001435
      f+1     :     0.000079
      f-1     :     0.000324
      f+2     :     0.000197
      f-2     :     0.000027
      f+3     :     0.000306
      f-3     :     0.000322
  1 C s       :     3.190872  s :     3.190872
      pz      :     1.059572  p :     2.666530
      px      :     0.887257
      py      :     0.719701
      dz2     :     0.011758  d :     0.166945
      dxz     :     0.019946
      dyz     :     0.054290
      dx2y2   :     0.023984
      dxy     :     0.056969
      f0      :     0.002057  f :     0.011224
      f+1     :     0.001192
      f-1     :     0.000897
      f+2     :     0.003295
      f-2     :     0.000249
      f+3     :     0.002814
      f-3     :     0.000719
  2 C s       :     3.335511  s :     3.335511
      pz      :     1.016358  p :     2.777423
      px      :     1.006566
      py      :     0.754500
      dz2     :     0.007361  d :     0.057521
      dxz     :     0.021750
      dyz     :     0.006823
      dx2y2   :     0.005802
      dxy     :     0.015785
      f0      :     0.000479  f :     0.004758
      f+1     :     0.000873
      f-1     :     0.000243
      f+2     :     0.000615
      f-2     :     0.000420
      f+3     :     0.000852
      f-3     :     0.001276
  3 H s       :     0.882926  s :     0.882926
      pz      :     0.009803  p :     0.019034
      px      :     0.005414
      py      :     0.003817
  4 H s       :     0.865263  s :     0.865263
      pz      :     0.010329  p :     0.021204
      px      :     0.006000
      py      :     0.004874
  5 H s       :     0.815961  s :     0.815961
      pz      :     0.008679  p :     0.016812
      px      :     0.004358
      py      :     0.003775
  6 H s       :     0.803416  s :     0.803416
      pz      :     0.009885  p :     0.019926
      px      :     0.006009
      py      :     0.004032


                     *******************************
                     * LOEWDIN POPULATION ANALYSIS *
                     *******************************

----------------------
LOEWDIN ATOMIC CHARGES
----------------------
   0 O :    0.016479
   1 C :   -0.509027
   2 C :   -0.081112
   3 H :    0.121095
   4 H :    0.117838
   5 H :    0.175119
   6 H :    0.159606

-------------------------------
LOEWDIN REDUCED ORBITAL CHARGES
-------------------------------
  0 O s       :     3.520136  s :     3.520136
      pz      :     1.809056  p :     4.393610
      px      :     1.127833
      py      :     1.456722
      dz2     :     0.007335  d :     0.065141
      dxz     :     0.000327
      dyz     :     0.019128
      dx2y2   :     0.019688
      dxy     :     0.018663
      f0      :     0.000523  f :     0.004635
      f+1     :     0.000134
      f-1     :     0.000652
      f+2     :     0.000975
      f-2     :     0.000041
      f+3     :     0.001361
      f-3     :     0.000950
  1 C s       :     2.835758  s :     2.835758
      pz      :     1.040202  p :     2.945419
      px      :     1.037028
      py      :     0.868189
      dz2     :     0.071174  d :     0.645204
      dxz     :     0.100640
      dyz     :     0.151045
      dx2y2   :     0.137673
      dxy     :     0.184673
      f0      :     0.013087  f :     0.082644
      f+1     :     0.006376
      f-1     :     0.008003
      f+2     :     0.019480
      f-2     :     0.002903
      f+3     :     0.021179
      f-3     :     0.011616
  2 C s       :     2.964841  s :     2.964841
      pz      :     1.051233  p :     2.866774
      px      :     1.121209
      py      :     0.694331
      dz2     :     0.029206  d :     0.225699
      dxz     :     0.095565
      dyz     :     0.019052
      dx2y2   :     0.037737
      dxy     :     0.044139
      f0      :     0.003051  f :     0.023798
      f+1     :     0.002588
      f-1     :     0.001322
      f+2     :     0.003759
      f-2     :     0.002333
      f+3     :     0.004519
      f-3     :     0.006228
  3 H s       :     0.827937  s :     0.827937
      pz      :     0.027435  p :     0.050968
      px      :     0.013915
      py      :     0.009617
  4 H s       :     0.823118  s :     0.823118
      pz      :     0.029987  p :     0.059044
      px      :     0.016303
      py      :     0.012754
  5 H s       :     0.781970  s :     0.781970
      pz      :     0.023495  p :     0.042911
      px      :     0.009886
      py      :     0.009529
  6 H s       :     0.786548  s :     0.786548
      pz      :     0.028532  p :     0.053845
      px      :     0.014650
      py      :     0.010664


                      *****************************
                      * MAYER POPULATION ANALYSIS *
                      *****************************

  NA   - Mulliken gross atomic population
  ZA   - Total nuclear charge
  QA   - Mulliken gross atomic charge
  VA   - Mayer's total valence
  BVA  - Mayer's bonded valence
  FA   - Mayer's free valence

  ATOM       NA         ZA         QA         VA         BVA        FA
  0 O      8.3447     8.0000    -0.3447     1.8628     1.8628    -0.0000
  1 C      6.0356     6.0000    -0.0356     4.0204     4.0204    -0.0000
  2 C      6.1752     6.0000    -0.1752     3.7677     3.7677    -0.0000
  3 H      0.9020     1.0000     0.0980     0.9665     0.9665    -0.0000
  4 H      0.8865     1.0000     0.1135     0.9689     0.9689    -0.0000
  5 H      0.8328     1.0000     0.1672     0.9580     0.9580     0.0000
  6 H      0.8233     1.0000     0.1767     0.9552     0.9552    -0.0000

  Mayer bond orders larger than 0.100000
B(  0-O ,  1-C ) :   1.0052 B(  0-O ,  2-C ) :   0.8483 B(  1-C ,  2-C ) :   1.0643 
B(  1-C ,  3-H ) :   0.9620 B(  1-C ,  4-H ) :   0.9750 B(  2-C ,  5-H ) :   0.9249 
B(  2-C ,  6-H ) :   0.9235 

-------
TIMINGS
-------

Total SCF time: 0 days 0 hours 0 min 3 sec 

Total time                  ....       3.260 sec
Sum of individual times     ....       2.968 sec  ( 91.0%)

Fock matrix formation       ....       2.691 sec  ( 82.5%)
  Split-RI-J                ....       0.295 sec  ( 11.0% of F)
  Chain of spheres X        ....       1.862 sec  ( 69.2% of F)
  XC integration            ....       0.504 sec  ( 18.7% of F)
    Basis function eval.    ....       0.140 sec  ( 27.7% of XC)
    Density eval.           ....       0.103 sec  ( 20.4% of XC)
    XC-Functional eval.     ....       0.029 sec  (  5.9% of XC)
    XC-Potential eval.      ....       0.175 sec  ( 34.7% of XC)
Diagonalization             ....       0.018 sec  (  0.6%)
Density matrix formation    ....       0.002 sec  (  0.1%)
Population analysis         ....       0.003 sec  (  0.1%)
Initial guess               ....       0.017 sec  (  0.5%)
Orbital Transformation      ....       0.000 sec  (  0.0%)
Orbital Orthonormalization  ....       0.000 sec  (  0.0%)
DIIS solution               ....       0.015 sec  (  0.5%)
SOSCF solution              ....       0.017 sec  (  0.5%)
Grid generation             ....       0.205 sec  (  6.3%)

Maximum memory used throughout the entire SCF-calculation: 61.0 MB


-------------------------------------------------------------------------------
                          DFT DISPERSION CORRECTION                            
                                                                               
                              DFTD3 V3.1  Rev 1                                
                          USING Becke-Johnson damping                          
-------------------------------------------------------------------------------
The PBE0 functional is recognized
Active option DFTDOPT                   ...         4   

molecular C6(AA) [au] = 395.540761 


            DFT-D V3
 parameters
 s6 scaling factor         :     1.0000 
 a1 scaling factor         :     0.4145 
 s8 scaling factor         :     1.2177 
 a2 scaling factor         :     4.8593 
 ad hoc parameters k1-k3   :    16.0000     1.3333    -4.0000 

 Edisp/kcal,au: -1.644074143549  -0.002619998639 
 E6   /kcal   :  -1.072385662 
 E8   /kcal   :  -0.571688482 
 % E8         :  34.772670333 

-------------------------   ----------------
Dispersion correction           -0.002619999
-------------------------   ----------------


-------------------------   --------------------
FINAL SINGLE POINT ENERGY      -153.529882610079
-------------------------   --------------------



           ************************************************************
           *        Program running with 8 parallel MPI-processes     *
           *              working on a common directory               *
           ************************************************************
------------------------------------------------------------------------------
                         ORCA SCF GRADIENT CALCULATION
------------------------------------------------------------------------------

 ... reading COSX grid (gridx3)
Gradient of the Kohn-Sham DFT energy:
Kohn-Sham wavefunction type      ... RKS
Hartree-Fock exchange scaling    ...    0.250
Number of operators              ...    1
Number of atoms                  ...    7
Basis set dimensions             ...  117
Integral neglect threshold       ... 2.5e-11
Integral primitive cutoff        ... 2.5e-12
SHARK Integral package           ... ON

Nuc. rep. gradient       (SHARK) ... done (  0.0 sec)
HCore & Overlap gradient (SHARK) ... done (  0.0 sec)
RI-J gradient            (SHARK) ... done (  0.1 sec)
COSX-gradient                    ... done (  0.4 sec)
Exchange-correlation gradient    ... done
Dispersion correction            ... done

------------------
CARTESIAN GRADIENT
------------------

   1   O   :   -0.083037065   -0.040864313   -0.002301308
   2   C   :    0.061087567    0.015098702   -0.028123662
   3   C   :    0.003617084    0.051588801    0.029779165
   4   H   :   -0.019709731    0.024019586    0.026120927
   5   H   :   -0.011869715    0.034787068   -0.006183124
   6   H   :    0.024680212   -0.047703326   -0.056927147
   7   H   :    0.025249764   -0.036951759    0.037650052

Difference to translation invariance:
           :    0.0000181165   -0.0000252424    0.0000149026

Difference to rotation invariance:
           :   -0.0001180996   -0.0001131476    0.0000978914

Norm of the cartesian gradient     ...    0.1716541246
RMS gradient                       ...    0.0374580009
MAX gradient                       ...    0.0830370649

-------
TIMINGS
-------

Total SCF gradient time            ...        0.767 sec

One electron gradient       ....       0.010 sec  (  1.3%)
RI-J Coulomb gradient       ....       0.084 sec  ( 10.9%)
COSX gradient               ....       0.357 sec  ( 46.5%)
XC gradient                 ....       0.172 sec  ( 22.4%)

Maximum memory used throughout the entire SCFGRAD-calculation: 35.9 MB

                            ***************************************
                            *     ORCA property calculations      *
                            ***************************************

                                    ---------------------
                                    Active property flags
                                    ---------------------
   (+) Dipole Moment


------------------------------------------------------------------------------
                       ORCA ELECTRIC PROPERTIES CALCULATION
------------------------------------------------------------------------------

Dipole Moment Calculation                       ... on
Quadrupole Moment Calculation                   ... off
Polarizability Calculation                      ... off
GBWName                                         ... ox_gs_E_orca0006.gbw
Electron density                                ... ox_gs_E_orca0006.scfp
The origin for moment calculation is the CENTER OF MASS  = (-0.716087,  0.130399 -0.066412)

-------------
DIPOLE MOMENT
-------------
                                X             Y             Z
Electronic contribution:     -0.60797       1.74819      -0.03518
Nuclear contribution   :      1.22617      -2.86822       0.07792
                        -----------------------------------------
Total Dipole Moment    :      0.61819      -1.12004       0.04274
                        -----------------------------------------
Magnitude (a.u.)       :      1.28003
Magnitude (Debye)      :      3.25357



--------------------
Rotational spectrum 
--------------------
 
Rotational constants in cm-1:     1.146184     0.418909     0.358013 
Rotational constants in MHz : 34361.736651 12558.576819 10732.969688 

 Dipole components along the rotational axes: 
x,y,z [a.u.] :    -1.149207    -0.563680    -0.007538 
x,y,z [Debye]:    -2.921052    -1.432760    -0.019160 

 

Timings for individual modules:

Sum of individual times         ...        4.683 sec (=   0.078 min)
GTO integral calculation        ...        0.290 sec (=   0.005 min)   6.2 %
SCF iterations                  ...        3.424 sec (=   0.057 min)  73.1 %
SCF Gradient evaluation         ...        0.968 sec (=   0.016 min)  20.7 %
                             ****ORCA TERMINATED NORMALLY****
TOTAL RUN TIME: 0 days 0 hours 0 minutes 5 seconds 5 msec
