
                                 *****************
                                 * O   R   C   A *
                                 *****************

                                            #,                                       
                                            ###                                      
                                            ####                                     
                                            #####                                    
                                            ######                                   
                                           ########,                                 
                                     ,,################,,,,,                         
                               ,,#################################,,                 
                          ,,##########################################,,             
                       ,#########################################, ''#####,          
                    ,#############################################,,   '####,        
                  ,##################################################,,,,####,       
                ,###########''''           ''''###############################       
              ,#####''   ,,,,##########,,,,          '''####'''          '####       
            ,##' ,,,,###########################,,,                        '##       
           ' ,,###''''                  '''############,,,                           
         ,,##''                                '''############,,,,        ,,,,,,###''
      ,#''                                            '''#######################'''  
     '                                                          ''''####''''         
             ,#######,   #######,   ,#######,      ##                                
            ,#'     '#,  ##    ##  ,#'     '#,    #''#        ######   ,####,        
            ##       ##  ##   ,#'  ##            #'  '#       #        #'  '#        
            ##       ##  #######   ##           ,######,      #####,   #    #        
            '#,     ,#'  ##    ##  '#,     ,#' ,#      #,         ##   #,  ,#        
             '#######'   ##     ##  '#######'  #'      '#     #####' # '####'        



                  #######################################################
                  #                        -***-                        #
                  #          Department of theory and spectroscopy      #
                  #    Directorship and core code : Frank Neese         #
                  #        Max Planck Institute fuer Kohlenforschung    #
                  #                Kaiser Wilhelm Platz 1               #
                  #                 D-45470 Muelheim/Ruhr               #
                  #                      Germany                        #
                  #                                                     #
                  #                  All rights reserved                #
                  #                        -***-                        #
                  #######################################################


                         Program Version 5.0.2 -  RELEASE  -


 With contributions from (in alphabetic order):
   Daniel Aravena         : Magnetic Suceptibility
   Michael Atanasov       : Ab Initio Ligand Field Theory (pilot matlab implementation)
   Alexander A. Auer      : GIAO ZORA, VPT2 properties, NMR spectrum
   Ute Becker             : Parallelization
   Giovanni Bistoni       : ED, misc. LED, open-shell LED, HFLD
   Martin Brehm           : Molecular dynamics
   Dmytro Bykov           : SCF Hessian
   Vijay G. Chilkuri      : MRCI spin determinant printing, contributions to CSF-ICE
   Dipayan Datta          : RHF DLPNO-CCSD density
   Achintya Kumar Dutta   : EOM-CC, STEOM-CC
   Dmitry Ganyushin       : Spin-Orbit,Spin-Spin,Magnetic field MRCI
   Miquel Garcia          : C-PCM and meta-GGA Hessian, CC/C-PCM, Gaussian charge scheme
   Yang Guo               : DLPNO-NEVPT2, F12-NEVPT2, CIM, IAO-localization
   Andreas Hansen         : Spin unrestricted coupled pair/coupled cluster methods
   Benjamin Helmich-Paris : MC-RPA, TRAH-SCF, COSX integrals
   Lee Huntington         : MR-EOM, pCC
   Robert Izsak           : Overlap fitted RIJCOSX, COSX-SCS-MP3, EOM
   Marcus Kettner         : VPT2
   Christian Kollmar      : KDIIS, OOCD, Brueckner-CCSD(T), CCSD density, CASPT2, CASPT2-K
   Simone Kossmann        : Meta GGA functionals, TD-DFT gradient, OOMP2, MP2 Hessian
   Martin Krupicka        : Initial AUTO-CI
   Lucas Lang             : DCDCAS
   Marvin Lechner         : AUTO-CI (C++ implementation), FIC-MRCC
   Dagmar Lenk            : GEPOL surface, SMD
   Dimitrios Liakos       : Extrapolation schemes; Compound Job, initial MDCI parallelization
   Dimitrios Manganas     : Further ROCIS development; embedding schemes
   Dimitrios Pantazis     : SARC Basis sets
   Anastasios Papadopoulos: AUTO-CI, single reference methods and gradients
   Taras Petrenko         : DFT Hessian,TD-DFT gradient, ASA, ECA, R-Raman, ABS, FL, XAS/XES, NRVS
   Peter Pinski           : DLPNO-MP2, DLPNO-MP2 Gradient
   Christoph Reimann      : Effective Core Potentials
   Marius Retegan         : Local ZFS, SOC
   Christoph Riplinger    : Optimizer, TS searches, QM/MM, DLPNO-CCSD(T), (RO)-DLPNO pert. Triples
   Tobias Risthaus        : Range-separated hybrids, TD-DFT gradient, RPA, STAB
   Michael Roemelt        : Original ROCIS implementation
   Masaaki Saitow         : Open-shell DLPNO-CCSD energy and density
   Barbara Sandhoefer     : DKH picture change effects
   Avijit Sen             : IP-ROCIS
   Kantharuban Sivalingam : CASSCF convergence, NEVPT2, FIC-MRCI
   Bernardo de Souza      : ESD, SOC TD-DFT
   Georgi Stoychev        : AutoAux, RI-MP2 NMR, DLPNO-MP2 response
   Willem Van den Heuvel  : Paramagnetic NMR
   Boris Wezisla          : Elementary symmetry handling
   Frank Wennmohs         : Technical directorship


 We gratefully acknowledge several colleagues who have allowed us to
 interface, adapt or use parts of their codes:
   Stefan Grimme, W. Hujo, H. Kruse, P. Pracht,  : VdW corrections, initial TS optimization,
                  C. Bannwarth, S. Ehlert          DFT functionals, gCP, sTDA/sTD-DF
   Ed Valeev, F. Pavosevic, A. Kumar             : LibInt (2-el integral package), F12 methods
   Garnet Chan, S. Sharma, J. Yang, R. Olivares  : DMRG
   Ulf Ekstrom                                   : XCFun DFT Library
   Mihaly Kallay                                 : mrcc  (arbitrary order and MRCC methods)
   Jiri Pittner, Ondrej Demel                    : Mk-CCSD
   Frank Weinhold                                : gennbo (NPA and NBO analysis)
   Christopher J. Cramer and Donald G. Truhlar   : smd solvation model
   Lars Goerigk                                  : TD-DFT with DH, B97 family of functionals
   V. Asgeirsson, H. Jonsson                     : NEB implementation
   FAccTs GmbH                                   : IRC, NEB, NEB-TS, DLPNO-Multilevel, CI-OPT
                                                   MM, QMMM, 2- and 3-layer-ONIOM, Crystal-QMMM,
                                                   LR-CPCM, SF, NACMEs, symmetry and pop. for TD-DFT,
                                                   nearIR, NL-DFT gradient (VV10), updates on ESD,
                                                   ML-optimized integration grids
   S Lehtola, MJT Oliveira, MAL Marques          : LibXC Library
   Liviu Ungur et al                             : ANISO software


 Your calculation uses the libint2 library for the computation of 2-el integrals
 For citations please refer to: http://libint.valeyev.net

 Your ORCA version has been built with support for libXC version: 5.1.0
 For citations please refer to: https://tddft.org/programs/libxc/

 This ORCA versions uses:
   CBLAS   interface :  Fast vector & matrix operations
   LAPACKE interface :  Fast linear algebra routines
   SCALAPACK package :  Parallel linear algebra routines
   Shared memory     :  Shared parallel matrices
   BLAS/LAPACK       :  OpenBLAS 0.3.15  USE64BITINT DYNAMIC_ARCH NO_AFFINITY SkylakeX SINGLE_THREADED
        Core in use  :  SkylakeX
   Copyright (c) 2011-2014, The OpenBLAS Project


Your calculation utilizes the atom-pairwise dispersion correction
with the Becke-Johnson damping scheme (D3BJ)
Cite in your paper:
S.Grimme, S.Ehrlich, L.Goerigk, J Comput Chem, (2011), 32, 1456–1465 
S.Grimme, J.Antony, S.Ehrlich and H.Krieg, J.Chem.Phys., 132, (2010), 154104 
   

================================================================================

----- Orbital basis set information -----
Your calculation utilizes the basis: def2-TZVP
   F. Weigend and R. Ahlrichs, Phys. Chem. Chem. Phys. 7, 3297 (2005).

----- AuxJ basis set information -----
Your calculation utilizes the auxiliary basis: def2/J
   F. Weigend, Phys. Chem. Chem. Phys. 8, 1057 (2006).

================================================================================
                                        WARNINGS
                       Please study these warnings very carefully!
================================================================================


INFO   : the flag for use of the SHARK integral package has been found!

================================================================================
                                       INPUT FILE
================================================================================
NAME = ox_gs_A_orca0003.inp
|  1> ! engrad PBE0 D3BJ def2-TZVP  
|  2> %pal nprocs 8 end
|  3> %maxcore 3000
|  4>  
|  5> *xyz 0 1 
|  6> O   -0.05981028120403354 0.80755060111971 0.06781211142854114
|  7> C   -0.7324900960790167 -0.3968438451053988 0.018081801252381707
|  8> C   0.6966335522697438 -0.42895070972457927 0.07690182832329846
|  9> H   -1.2656142319554975 -0.5900386272092997 0.7889889647955128
| 10> H   -1.2227276447812387 -0.6639185565880915 -0.9349265875232934
| 11> H   1.268410858826775 -0.7676493057300446 -0.9309598143918756
| 12> H   1.2816784985755874 -0.5943761077629242 0.8940626590863177
| 13> *
| 14> 
| 15>                          ****END OF INPUT****
================================================================================

                     *******************************
                     * Energy+Gradient Calculation *
                     *******************************

---------------------------------
CARTESIAN COORDINATES (ANGSTROEM)
---------------------------------
  O     -0.059810    0.807551    0.067812
  C     -0.732490   -0.396844    0.018082
  C      0.696634   -0.428951    0.076902
  H     -1.265614   -0.590039    0.788989
  H     -1.222728   -0.663919   -0.934927
  H      1.268411   -0.767649   -0.930960
  H      1.281678   -0.594376    0.894063

----------------------------
CARTESIAN COORDINATES (A.U.)
----------------------------
  NO LB      ZA    FRAG     MASS         X           Y           Z
   0 O     8.0000    0    15.999   -0.113025    1.526049    0.128146
   1 C     6.0000    0    12.011   -1.384206   -0.749926    0.034170
   2 C     6.0000    0    12.011    1.316447   -0.810599    0.145323
   3 H     1.0000    0     1.008   -2.391664   -1.115011    1.490973
   4 H     1.0000    0     1.008   -2.310620   -1.254624   -1.766755
   5 H     1.0000    0     1.008    2.396949   -1.450647   -1.759259
   6 H     1.0000    0     1.008    2.422021   -1.123208    1.689534

--------------------------------
INTERNAL COORDINATES (ANGSTROEM)
--------------------------------
 O      0   0   0     0.000000000000     0.00000000     0.00000000
 C      1   0   0     1.380411974444     0.00000000     0.00000000
 C      2   1   0     1.430693904583    62.05200105     0.00000000
 H      2   1   3     0.956997086144   114.74506044   113.71374485
 H      2   1   3     1.104484832285   117.28106720   250.76863244
 H      3   2   1     1.207241118454   116.42822496   251.37405717
 H      3   2   1     1.018525883249   127.61863721    99.78954299

---------------------------
INTERNAL COORDINATES (A.U.)
---------------------------
 O      0   0   0     0.000000000000     0.00000000     0.00000000
 C      1   0   0     2.608600583685     0.00000000     0.00000000
 C      2   1   0     2.703619661132    62.05200105     0.00000000
 H      2   1   3     1.808462403773   114.74506044   113.71374485
 H      2   1   3     2.087173852089   117.28106720   250.76863244
 H      3   2   1     2.281355091487   116.42822496   251.37405717
 H      3   2   1     1.924734979650   127.61863721    99.78954299

---------------------
BASIS SET INFORMATION
---------------------
There are 3 groups of distinct atoms

 Group   1 Type O   : 11s6p2d1f contracted to 5s3p2d1f pattern {62111/411/11/1}
 Group   2 Type C   : 11s6p2d1f contracted to 5s3p2d1f pattern {62111/411/11/1}
 Group   3 Type H   : 5s1p contracted to 3s1p pattern {311/1}

Atom   0O    basis set group =>   1
Atom   1C    basis set group =>   2
Atom   2C    basis set group =>   2
Atom   3H    basis set group =>   3
Atom   4H    basis set group =>   3
Atom   5H    basis set group =>   3
Atom   6H    basis set group =>   3
---------------------------------
AUXILIARY/J BASIS SET INFORMATION
---------------------------------
There are 3 groups of distinct atoms

 Group   1 Type O   : 12s5p4d2f1g contracted to 6s4p3d1f1g pattern {711111/2111/211/2/1}
 Group   2 Type C   : 12s5p4d2f1g contracted to 6s4p3d1f1g pattern {711111/2111/211/2/1}
 Group   3 Type H   : 5s2p1d contracted to 3s1p1d pattern {311/2/1}

Atom   0O    basis set group =>   1
Atom   1C    basis set group =>   2
Atom   2C    basis set group =>   2
Atom   3H    basis set group =>   3
Atom   4H    basis set group =>   3
Atom   5H    basis set group =>   3
Atom   6H    basis set group =>   3


           ************************************************************
           *        Program running with 8 parallel MPI-processes     *
           *              working on a common directory               *
           ************************************************************
------------------------------------------------------------------------------
                           ORCA GTO INTEGRAL CALCULATION
                           -- RI-GTO INTEGRALS CHOSEN --
------------------------------------------------------------------------------
------------------------------------------------------------------------------
                   ___                                                        
                  /   \      - P O W E R E D   B Y -                         
                 /     \                                                     
                 |  |  |   _    _      __       _____    __    __             
                 |  |  |  | |  | |    /  \     |  _  \  |  |  /  |          
                  \  \/   | |  | |   /    \    | | | |  |  | /  /          
                 / \  \   | |__| |  /  /\  \   | |_| |  |  |/  /          
                |  |  |   |  __  | /  /__\  \  |    /   |      \           
                |  |  |   | |  | | |   __   |  |    \   |  |\   \          
                \     /   | |  | | |  |  |  |  | |\  \  |  | \   \       
                 \___/    |_|  |_| |__|  |__|  |_| \__\ |__|  \__/        
                                                                              
                      - O R C A' S   B I G   F R I E N D -                    
                                      &                                       
                       - I N T E G R A L  F E E D E R -                       
                                                                              
 v1 FN, 2020, v2 2021                                                         
------------------------------------------------------------------------------


Reading SHARK input file ox_gs_A_orca0003.SHARKINP.tmp ... ok
----------------------
SHARK INTEGRAL PACKAGE
----------------------

Number of atoms                             ...      7
Number of basis functions                   ...    117
Number of shells                            ...     49
Maximum angular momentum                    ...      3
Integral batch strategy                     ... SHARK/LIBINT Hybrid
RI-J (if used) integral strategy            ... SPLIT-RIJ (Revised 2003 algorithm where possible)
Printlevel                                  ...      1
Contraction scheme used                     ... SEGMENTED contraction
Coulomb Range Separation                    ... NOT USED
Exchange Range Separation                   ... NOT USED
Finite Nucleus Model                        ... NOT USED
Auxiliary Coulomb fitting basis             ... AVAILABLE
   # of basis functions in Aux-J            ...    191
   # of shells in Aux-J                     ...     65
   Maximum angular momentum in Aux-J        ...      4
Auxiliary J/K fitting basis                 ... NOT available
Auxiliary Correlation fitting basis         ... NOT available
Auxiliary 'external' fitting basis          ... NOT available
Integral threshold                          ...     2.500000e-11
Primitive cut-off                           ...     2.500000e-12
Primitive pair pre-selection threshold      ...     2.500000e-12

Calculating pre-screening integrals         ... done (  0.0 sec) Dimension = 49
Organizing shell pair data                  ... done (  0.0 sec)
Shell pair information
Total number of shell pairs                 ...      1225
Shell pairs after pre-screening             ...      1221
Total number of primitive shell pairs       ...      3648
Primitive shell pairs kept                  ...      3157
          la=0 lb=0:    374 shell pairs
          la=1 lb=0:    351 shell pairs
          la=1 lb=1:     91 shell pairs
          la=2 lb=0:    162 shell pairs
          la=2 lb=1:     78 shell pairs
          la=2 lb=2:     21 shell pairs
          la=3 lb=0:     81 shell pairs
          la=3 lb=1:     39 shell pairs
          la=3 lb=2:     18 shell pairs
          la=3 lb=3:      6 shell pairs

Calculating one electron integrals          ... done (  0.0 sec)
Calculating RI/J V-Matrix + Cholesky decomp.... done (  0.0 sec)
Calculating Nuclear repulsion               ... done (  0.0 sec) ENN=     76.345062113746 Eh

SHARK setup successfully completed in   0.2 seconds

Maximum memory used throughout the entire GTOINT-calculation: 14.9 MB


           ************************************************************
           *        Program running with 8 parallel MPI-processes     *
           *              working on a common directory               *
           ************************************************************
-------------------------------------------------------------------------------
                                 ORCA SCF
-------------------------------------------------------------------------------

------------
SCF SETTINGS
------------
Hamiltonian:
 Density Functional     Method          .... DFT(GTOs)
 Exchange Functional    Exchange        .... PBE
   PBE kappa parameter   XKappa         ....  0.804000
   PBE mue parameter    XMuePBE         ....  0.219520
 Correlation Functional Correlation     .... PBE
   PBE beta parameter  CBetaPBE         ....  0.066725
 LDA part of GGA corr.  LDAOpt          .... PW91-LDA
 Gradients option       PostSCFGGA      .... off
 Hybrid DFT is turned on
   Fraction HF Exchange ScalHFX         ....  0.250000
   Scaling of DF-GGA-X  ScalDFX         ....  0.750000
   Scaling of DF-GGA-C  ScalDFC         ....  1.000000
   Scaling of DF-LDA-C  ScalLDAC        ....  1.000000
   Perturbative correction              ....  0.000000
   Density functional embedding theory  .... OFF
   NL short-range parameter             ....  6.900000
 RI-approximation to the Coulomb term is turned on
   Number of AuxJ basis functions       .... 191
   RIJ-COSX (HFX calculated with COS-X)).... on


General Settings:
 Integral files         IntName         .... ox_gs_A_orca0003
 Hartree-Fock type      HFTyp           .... RHF
 Total Charge           Charge          ....    0
 Multiplicity           Mult            ....    1
 Number of Electrons    NEL             ....   24
 Basis Dimension        Dim             ....  117
 Nuclear Repulsion      ENuc            ....     76.3450621137 Eh

Convergence Acceleration:
 DIIS                   CNVDIIS         .... on
   Start iteration      DIISMaxIt       ....    12
   Startup error        DIISStart       ....  0.200000
   # of expansion vecs  DIISMaxEq       ....     5
   Bias factor          DIISBfac        ....   1.050
   Max. coefficient     DIISMaxC        ....  10.000
 Trust-Rad. Augm. Hess. CNVTRAH         .... auto
   Auto Start mean grad. ratio tolernc. ....  1.125000
   Auto Start start iteration           ....    20
   Auto Start num. interpolation iter.  ....    10
   Max. Number of Micro iterations      ....    16
   Max. Number of Macro iterations      .... Maxiter - #DIIS iter
   Number of Davidson start vectors     ....     2
   Converg. threshold I  (grad. norm)   ....   1.000e-05
   Converg. threshold II (energy diff.) ....   1.000e-08
   Grad. Scal. Fac. for Micro threshold ....   0.100
   Minimum threshold for Micro iter.    ....   0.010
   NR start threshold (gradient norm)   ....   0.001
   Initial trust radius                 ....   0.400
   Minimum AH scaling param. (alpha)    ....   1.000
   Maximum AH scaling param. (alpha)    .... 1000.000
   Orbital update algorithm             .... Taylor
   White noise on init. David. guess    .... on
   Maximum white noise                  ....   0.010
   Quad. conv. algorithm                .... NR
 SOSCF                  CNVSOSCF        .... on
   Start iteration      SOSCFMaxIt      ....   150
   Startup grad/error   SOSCFStart      ....  0.003300
 Level Shifting         CNVShift        .... on
   Level shift para.    LevelShift      ....    0.2500
   Turn off err/grad.   ShiftErr        ....    0.0010
 Zerner damping         CNVZerner       .... off
 Static damping         CNVDamp         .... on
   Fraction old density DampFac         ....    0.7000
   Max. Damping (<1)    DampMax         ....    0.9800
   Min. Damping (>=0)   DampMin         ....    0.0000
   Turn off err/grad.   DampErr         ....    0.1000
 Fernandez-Rico         CNVRico         .... off

SCF Procedure:
 Maximum # iterations   MaxIter         ....   125
 SCF integral mode      SCFMode         .... Direct
   Integral package                     .... SHARK and LIBINT hybrid scheme
 Reset frequency        DirectResetFreq ....    20
 Integral Threshold     Thresh          ....  2.500e-11 Eh
 Primitive CutOff       TCut            ....  2.500e-12 Eh

Convergence Tolerance:
 Convergence Check Mode ConvCheckMode   .... Total+1el-Energy
 Convergence forced     ConvForced      .... 0
 Energy Change          TolE            ....  1.000e-08 Eh
 1-El. energy change                    ....  1.000e-05 Eh
 Orbital Gradient       TolG            ....  1.000e-05
 Orbital Rotation angle TolX            ....  1.000e-05
 DIIS Error             TolErr          ....  5.000e-07


Diagonalization of the overlap matrix:
Smallest eigenvalue                        ... 3.101e-04
Time for diagonalization                   ...    0.020 sec
Threshold for overlap eigenvalues          ... 1.000e-08
Number of eigenvalues below threshold      ... 0
Time for construction of square roots      ...    0.003 sec
Total time needed                          ...    0.023 sec

Time for model grid setup =    0.040 sec

------------------------------
INITIAL GUESS: MODEL POTENTIAL
------------------------------
Loading Hartree-Fock densities                     ... done
Calculating cut-offs                               ... done
Initializing the effective Hamiltonian             ... done
Setting up the integral package (SHARK)            ... done
Starting the Coulomb interaction                   ... done (   0.0 sec)
Reading the grid                                   ... done
Mapping shells                                     ... done
Starting the XC term evaluation                    ... done (   0.0 sec)
  promolecular density results
     # of electrons  =     23.996695383
     EX              =    -19.572906703
     EC              =     -0.785345085
     EX+EC           =    -20.358251788
Transforming the Hamiltonian                       ... done (   0.0 sec)
Diagonalizing the Hamiltonian                      ... done (   0.0 sec)
Back transforming the eigenvectors                 ... done (   0.0 sec)
Now organizing SCF variables                       ... done
                      ------------------
                      INITIAL GUESS DONE (   0.1 sec)
                      ------------------
-------------------
DFT GRID GENERATION
-------------------

General Integration Accuracy     IntAcc      ... 4.388
Radial Grid Type                 RadialGrid  ... OptM3 with GC (2021)
Angular Grid (max. ang.)         AngularGrid ... 4 (Lebedev-302)
Angular grid pruning method      GridPruning ... 4 (adaptive)
Weight generation scheme         WeightScheme... Becke
Basis function cutoff            BFCut       ... 1.0000e-11
Integration weight cutoff        WCut        ... 1.0000e-14
Angular grids for H and He will be reduced by one unit
Partially contracted basis set               ... off
Rotationally invariant grid construction     ... off

Total number of grid points                  ...    31294
Total number of batches                      ...      493
Average number of points per batch           ...       63
Average number of grid points per atom       ...     4471
Time for grid setup =    0.111 sec

--------------------
COSX GRID GENERATION
--------------------

GRIDX 1
-------
General Integration Accuracy     IntAcc      ... 3.816
Radial Grid Type                 RadialGrid  ... OptM3 with GC (2021)
Angular Grid (max. ang.)         AngularGrid ... 1 (Lebedev-50)
Angular grid pruning method      GridPruning ... 4 (adaptive)
Weight generation scheme         WeightScheme... Becke
Basis function cutoff            BFCut       ... 1.0000e-11
Integration weight cutoff        WCut        ... 1.0000e-14
Angular grids for H and He will be reduced by one unit
Partially contracted basis set               ... on
Rotationally invariant grid construction     ... off

Total number of grid points                  ...     4035
Total number of batches                      ...       67
Average number of points per batch           ...       60
Average number of grid points per atom       ...      576
UseSFitting                                  ... on

GRIDX 2
-------
General Integration Accuracy     IntAcc      ... 4.020
Radial Grid Type                 RadialGrid  ... OptM3 with GC (2021)
Angular Grid (max. ang.)         AngularGrid ... 2 (Lebedev-110)
Angular grid pruning method      GridPruning ... 4 (adaptive)
Weight generation scheme         WeightScheme... Becke
Basis function cutoff            BFCut       ... 1.0000e-11
Integration weight cutoff        WCut        ... 1.0000e-14
Angular grids for H and He will be reduced by one unit
Partially contracted basis set               ... on
Rotationally invariant grid construction     ... off

Total number of grid points                  ...     8710
Total number of batches                      ...      140
Average number of points per batch           ...       62
Average number of grid points per atom       ...     1244
UseSFitting                                  ... on

GRIDX 3
-------
General Integration Accuracy     IntAcc      ... 4.338
Radial Grid Type                 RadialGrid  ... OptM3 with GC (2021)
Angular Grid (max. ang.)         AngularGrid ... 3 (Lebedev-194)
Angular grid pruning method      GridPruning ... 4 (adaptive)
Weight generation scheme         WeightScheme... Becke
Basis function cutoff            BFCut       ... 1.0000e-11
Integration weight cutoff        WCut        ... 1.0000e-14
Angular grids for H and He will be reduced by one unit
Partially contracted basis set               ... on
Rotationally invariant grid construction     ... off

Total number of grid points                  ...    19237
Total number of batches                      ...      304
Average number of points per batch           ...       63
Average number of grid points per atom       ...     2748
UseSFitting                                  ... on

Time for X-Grid setup             =    0.072 sec

--------------
SCF ITERATIONS
--------------
ITER       Energy         Delta-E        Max-DP      RMS-DP      [F,P]     Damp
               ***  Starting incremental Fock matrix formation  ***
  0   -153.5760644561   0.000000000000 0.03227783  0.00116895  0.1689933 0.7000
  1   -153.6073507276  -0.031286271454 0.01797799  0.00087293  0.0771538 0.7000
                               ***Turning on DIIS***
  2   -153.6205705693  -0.013219841698 0.02976438  0.00151246  0.0356334 0.0000
  3   -153.6413252034  -0.020754634153 0.01335123  0.00065005  0.0387411 0.0000
  4   -153.6456209775  -0.004295774034 0.00347785  0.00018017  0.0074115 0.0000
  5   -153.6457895152  -0.000168537761 0.00158235  0.00006773  0.0044098 0.0000
                      *** Initiating the SOSCF procedure ***
                           *** Shutting down DIIS ***
                      *** Re-Reading the Fockian *** 
                      *** Removing any level shift *** 
ITER      Energy       Delta-E        Grad      Rot      Max-DP    RMS-DP
  6   -153.64581696  -0.0000274494  0.000135  0.000135  0.000962  0.000033
               *** Restarting incremental Fock matrix formation ***
  7   -153.64580854   0.0000084243  0.000053  0.000077  0.000109  0.000005
  8   -153.64580851   0.0000000266  0.000083  0.000051  0.000069  0.000003
  9   -153.64580859  -0.0000000734  0.000009  0.000013  0.000022  0.000001
 10   -153.64580859   0.0000000010  0.000009  0.000007  0.000013  0.000000
                 **** Energy Check signals convergence ****
              ***Rediagonalizing the Fockian in SOSCF/NRSCF***

               *****************************************************
               *                     SUCCESS                       *
               *           SCF CONVERGED AFTER  11 CYCLES          *
               *****************************************************

Old exchange energy                            =     -5.011841632 Eh
New exchange energy                            =     -5.011824720 Eh
Exchange energy change after final integration =      0.000016913 Eh
Total energy after final integration           =   -153.645791676 Eh
Final COS-X integration done in                =     0.252 sec

----------------
TOTAL SCF ENERGY
----------------

Total Energy       :         -153.64579168 Eh           -4180.91455 eV

Components:
Nuclear Repulsion  :           76.34506211 Eh            2077.45476 eV
Electronic Energy  :         -229.99085379 Eh           -6258.36930 eV
One Electron Energy:         -359.21523763 Eh           -9774.74355 eV
Two Electron Energy:          129.22438384 Eh            3516.37425 eV
Max COSX asymmetry :            0.00000248 Eh               0.00007 eV

Virial components:
Potential Energy   :         -306.86874641 Eh           -8350.32311 eV
Kinetic Energy     :          153.22295473 Eh            4169.40857 eV
Virial Ratio       :            2.00275962


DFT components:
N(Alpha)           :       12.000002491205 electrons
N(Beta)            :       12.000002491205 electrons
N(Total)           :       24.000004982410 electrons
E(X)               :      -15.001645534570 Eh       
E(C)               :       -0.792830583657 Eh       
E(XC)              :      -15.794476118227 Eh       
DFET-embed. en.    :        0.000000000000 Eh       

---------------
SCF CONVERGENCE
---------------

  Last Energy change         ...   -2.8485e-09  Tolerance :   1.0000e-08
  Last MAX-Density change    ...    6.6613e-16  Tolerance :   1.0000e-07
  Last RMS-Density change    ...    2.0352e-17  Tolerance :   5.0000e-09
  Last Orbital Gradient      ...    4.9494e-07  Tolerance :   1.0000e-05
  Last Orbital Rotation      ...    8.6795e-07  Tolerance :   1.0000e-05

             **** THE GBW FILE WAS UPDATED (ox_gs_A_orca0003.gbw) ****
             **** DENSITY ox_gs_A_orca0003.scfp WAS UPDATED ****
             **** ENERGY FILE WAS UPDATED (ox_gs_A_orca0003.en.tmp) ****
             **** THE GBW FILE WAS UPDATED (ox_gs_A_orca0003.gbw) ****
             **** DENSITY ox_gs_A_orca0003.scfp WAS UPDATED ****
----------------
ORBITAL ENERGIES
----------------

  NO   OCC          E(Eh)            E(eV) 
   0   2.0000     -19.224940      -523.1372 
   1   2.0000     -10.278464      -279.6912 
   2   2.0000     -10.259666      -279.1797 
   3   2.0000      -1.118516       -30.4364 
   4   2.0000      -0.709375       -19.3031 
   5   2.0000      -0.665008       -18.0958 
   6   2.0000      -0.542972       -14.7750 
   7   2.0000      -0.507018       -13.7967 
   8   2.0000      -0.420843       -11.4517 
   9   2.0000      -0.389077       -10.5873 
  10   2.0000      -0.339158        -9.2290 
  11   2.0000      -0.290791        -7.9128 
  12   0.0000       0.057103         1.5539 
  13   0.0000       0.078504         2.1362 
  14   0.0000       0.087912         2.3922 
  15   0.0000       0.105607         2.8737 
  16   0.0000       0.110422         3.0047 
  17   0.0000       0.156402         4.2559 
  18   0.0000       0.190639         5.1876 
  19   0.0000       0.223471         6.0810 
  20   0.0000       0.267412         7.2767 
  21   0.0000       0.269979         7.3465 
  22   0.0000       0.296920         8.0796 
  23   0.0000       0.336843         9.1660 
  24   0.0000       0.384036        10.4502 
  25   0.0000       0.394051        10.7227 
  26   0.0000       0.404949        11.0192 
  27   0.0000       0.435369        11.8470 
  28   0.0000       0.457046        12.4368 
  29   0.0000       0.479917        13.0592 
  30   0.0000       0.493355        13.4249 
  31   0.0000       0.529375        14.4050 
  32   0.0000       0.572245        15.5716 
  33   0.0000       0.693496        18.8710 
  34   0.0000       0.711072        19.3493 
  35   0.0000       0.734536        19.9877 
  36   0.0000       0.824535        22.4367 
  37   0.0000       0.870537        23.6885 
  38   0.0000       0.889910        24.2157 
  39   0.0000       0.955652        26.0046 
  40   0.0000       1.018073        27.7032 
  41   0.0000       1.038504        28.2591 
  42   0.0000       1.077392        29.3173 
  43   0.0000       1.099465        29.9180 
  44   0.0000       1.180398        32.1203 
  45   0.0000       1.352363        36.7997 
  46   0.0000       1.457669        39.6652 
  47   0.0000       1.496327        40.7171 
  48   0.0000       1.519491        41.3474 
  49   0.0000       1.525828        41.5199 
  50   0.0000       1.580929        43.0193 
  51   0.0000       1.616728        43.9934 
  52   0.0000       1.679006        45.6881 
  53   0.0000       1.697762        46.1985 
  54   0.0000       1.782903        48.5153 
  55   0.0000       1.822177        49.5840 
  56   0.0000       1.833384        49.8889 
  57   0.0000       1.919160        52.2230 
  58   0.0000       1.933941        52.6252 
  59   0.0000       1.981167        53.9103 
  60   0.0000       2.127946        57.9044 
  61   0.0000       2.156479        58.6808 
  62   0.0000       2.181117        59.3512 
  63   0.0000       2.275383        61.9163 
  64   0.0000       2.296646        62.4949 
  65   0.0000       2.405980        65.4700 
  66   0.0000       2.439073        66.3706 
  67   0.0000       2.543208        69.2042 
  68   0.0000       2.556036        69.5533 
  69   0.0000       2.587855        70.4191 
  70   0.0000       2.651126        72.1408 
  71   0.0000       2.679225        72.9054 
  72   0.0000       2.711512        73.7840 
  73   0.0000       2.720509        74.0288 
  74   0.0000       2.799385        76.1751 
  75   0.0000       2.819963        76.7351 
  76   0.0000       2.906615        79.0930 
  77   0.0000       2.946393        80.1754 
  78   0.0000       3.009136        81.8828 
  79   0.0000       3.022468        82.2455 
  80   0.0000       3.048460        82.9528 
  81   0.0000       3.058964        83.2386 
  82   0.0000       3.193783        86.9072 
  83   0.0000       3.246610        88.3447 
  84   0.0000       3.337341        90.8137 
  85   0.0000       3.365376        91.5765 
  86   0.0000       3.402194        92.5784 
  87   0.0000       3.431839        93.3851 
  88   0.0000       3.593938        97.7960 
  89   0.0000       3.649975        99.3209 
  90   0.0000       3.703534       100.7783 
  91   0.0000       3.718442       101.1840 
  92   0.0000       3.892771       105.9277 
  93   0.0000       4.119849       112.1068 
  94   0.0000       4.148902       112.8974 
  95   0.0000       4.237349       115.3041 
  96   0.0000       4.250046       115.6496 
  97   0.0000       4.349847       118.3654 
  98   0.0000       4.479711       121.8991 
  99   0.0000       4.593131       124.9855 
 100   0.0000       4.765167       129.6668 
 101   0.0000       4.902501       133.4038 
 102   0.0000       5.309131       144.4688 
 103   0.0000       5.451469       148.3420 
 104   0.0000       5.696765       155.0169 
 105   0.0000       5.780201       157.2873 
 106   0.0000       5.853604       159.2847 
 107   0.0000       5.924802       161.2221 
 108   0.0000       6.086560       165.6237 
 109   0.0000       6.600405       179.6061 
 110   0.0000       6.620584       180.1552 
 111   0.0000       6.802640       185.1093 
 112   0.0000       6.968628       189.6260 
 113   0.0000       7.176406       195.2799 
 114   0.0000      22.311851       607.1363 
 115   0.0000      22.706725       617.8814 
 116   0.0000      43.870275      1193.7709 

                    ********************************
                    * MULLIKEN POPULATION ANALYSIS *
                    ********************************

-----------------------
MULLIKEN ATOMIC CHARGES
-----------------------
   0 O :   -0.316657
   1 C :   -0.034110
   2 C :   -0.088225
   3 H :    0.108333
   4 H :    0.098714
   5 H :    0.103586
   6 H :    0.128359
Sum of atomic charges:    0.0000000

--------------------------------
MULLIKEN REDUCED ORBITAL CHARGES
--------------------------------
  0 O s       :     3.855694  s :     3.855694
      pz      :     1.831903  p :     4.414360
      px      :     1.321558
      py      :     1.260899
      dz2     :     0.005892  d :     0.044284
      dxz     :     0.002680
      dyz     :     0.007178
      dx2y2   :     0.012796
      dxy     :     0.015739
      f0      :     0.000276  f :     0.002320
      f+1     :     0.000200
      f-1     :     0.000485
      f+2     :     0.000100
      f-2     :     0.000215
      f+3     :     0.000403
      f-3     :     0.000642
  1 C s       :     3.189661  s :     3.189661
      pz      :     1.050368  p :     2.710750
      px      :     0.899692
      py      :     0.760691
      dz2     :     0.004939  d :     0.121154
      dxz     :     0.026299
      dyz     :     0.034403
      dx2y2   :     0.032591
      dxy     :     0.022923
      f0      :     0.001716  f :     0.012544
      f+1     :     0.001377
      f-1     :     0.000738
      f+2     :     0.001500
      f-2     :     0.001814
      f+3     :     0.002049
      f-3     :     0.003349
  2 C s       :     3.223620  s :     3.223620
      pz      :     1.045814  p :     2.744050
      px      :     0.917346
      py      :     0.780890
      dz2     :     0.005066  d :     0.108894
      dxz     :     0.027145
      dyz     :     0.028993
      dx2y2   :     0.027181
      dxy     :     0.020508
      f0      :     0.001456  f :     0.011660
      f+1     :     0.001309
      f-1     :     0.000636
      f+2     :     0.001446
      f-2     :     0.001673
      f+3     :     0.002191
      f-3     :     0.002949
  3 H s       :     0.867102  s :     0.867102
      pz      :     0.010379  p :     0.024565
      px      :     0.008421
      py      :     0.005764
  4 H s       :     0.881068  s :     0.881068
      pz      :     0.010814  p :     0.020218
      px      :     0.005704
      py      :     0.003700
  5 H s       :     0.879509  s :     0.879509
      pz      :     0.008893  p :     0.016904
      px      :     0.004925
      py      :     0.003086
  6 H s       :     0.848245  s :     0.848245
      pz      :     0.010506  p :     0.023396
      px      :     0.008257
      py      :     0.004633


                     *******************************
                     * LOEWDIN POPULATION ANALYSIS *
                     *******************************

----------------------
LOEWDIN ATOMIC CHARGES
----------------------
   0 O :    0.150201
   1 C :   -0.320209
   2 C :   -0.268541
   3 H :    0.080098
   4 H :    0.123220
   5 H :    0.137440
   6 H :    0.097790

-------------------------------
LOEWDIN REDUCED ORBITAL CHARGES
-------------------------------
  0 O s       :     3.369921  s :     3.369921
      pz      :     1.708640  p :     4.376523
      px      :     1.299290
      py      :     1.368592
      dz2     :     0.011813  d :     0.096190
      dxz     :     0.008188
      dyz     :     0.016125
      dx2y2   :     0.034531
      dxy     :     0.025533
      f0      :     0.000693  f :     0.007166
      f+1     :     0.000256
      f-1     :     0.000964
      f+2     :     0.000204
      f-2     :     0.000997
      f+3     :     0.001244
      f-3     :     0.002809
  1 C s       :     2.780098  s :     2.780098
      pz      :     1.052346  p :     2.918919
      px      :     1.036897
      py      :     0.829676
      dz2     :     0.056937  d :     0.535645
      dxz     :     0.142178
      dyz     :     0.101078
      dx2y2   :     0.122504
      dxy     :     0.112948
      f0      :     0.011553  f :     0.085547
      f+1     :     0.006760
      f-1     :     0.006784
      f+2     :     0.010246
      f-2     :     0.008468
      f+3     :     0.015966
      f-3     :     0.025769
  2 C s       :     2.819387  s :     2.819387
      pz      :     1.045266  p :     2.912773
      px      :     1.044349
      py      :     0.823158
      dz2     :     0.047984  d :     0.465971
      dxz     :     0.139013
      dyz     :     0.080499
      dx2y2   :     0.101591
      dxy     :     0.096884
      f0      :     0.008687  f :     0.070410
      f+1     :     0.005672
      f-1     :     0.005574
      f+2     :     0.008662
      f-2     :     0.006484
      f+3     :     0.014690
      f-3     :     0.020640
  3 H s       :     0.836123  s :     0.836123
      pz      :     0.037863  p :     0.083778
      px      :     0.026429
      py      :     0.019487
  4 H s       :     0.820091  s :     0.820091
      pz      :     0.030982  p :     0.056689
      px      :     0.014909
      py      :     0.010798
  5 H s       :     0.818142  s :     0.818142
      pz      :     0.024677  p :     0.044418
      px      :     0.011653
      py      :     0.008088
  6 H s       :     0.828058  s :     0.828058
      pz      :     0.035338  p :     0.074152
      px      :     0.023701
      py      :     0.015113


                      *****************************
                      * MAYER POPULATION ANALYSIS *
                      *****************************

  NA   - Mulliken gross atomic population
  ZA   - Total nuclear charge
  QA   - Mulliken gross atomic charge
  VA   - Mayer's total valence
  BVA  - Mayer's bonded valence
  FA   - Mayer's free valence

  ATOM       NA         ZA         QA         VA         BVA        FA
  0 O      8.3167     8.0000    -0.3167     2.0066     2.0066     0.0000
  1 C      6.0341     6.0000    -0.0341     4.0045     4.0045     0.0000
  2 C      6.0882     6.0000    -0.0882     3.9573     3.9573     0.0000
  3 H      0.8917     1.0000     0.1083     0.9567     0.9567    -0.0000
  4 H      0.9013     1.0000     0.0987     0.9621     0.9621     0.0000
  5 H      0.8964     1.0000     0.1036     0.9636     0.9636     0.0000
  6 H      0.8716     1.0000     0.1284     0.9600     0.9600     0.0000

  Mayer bond orders larger than 0.100000
B(  0-O ,  1-C ) :   0.9996 B(  0-O ,  2-C ) :   0.9796 B(  1-C ,  2-C ) :   1.0687 
B(  1-C ,  3-H ) :   0.9714 B(  1-C ,  4-H ) :   0.9505 B(  2-C ,  5-H ) :   0.9406 
B(  2-C ,  6-H ) :   0.9598 

-------
TIMINGS
-------

Total SCF time: 0 days 0 hours 0 min 2 sec 

Total time                  ....       2.674 sec
Sum of individual times     ....       2.442 sec  ( 91.3%)

Fock matrix formation       ....       2.129 sec  ( 79.6%)
  Split-RI-J                ....       0.290 sec  ( 13.6% of F)
  Chain of spheres X        ....       1.400 sec  ( 65.8% of F)
  XC integration            ....       0.394 sec  ( 18.5% of F)
    Basis function eval.    ....       0.103 sec  ( 26.2% of XC)
    Density eval.           ....       0.077 sec  ( 19.5% of XC)
    XC-Functional eval.     ....       0.022 sec  (  5.7% of XC)
    XC-Potential eval.      ....       0.138 sec  ( 35.1% of XC)
Diagonalization             ....       0.015 sec  (  0.6%)
Density matrix formation    ....       0.001 sec  (  0.1%)
Population analysis         ....       0.003 sec  (  0.1%)
Initial guess               ....       0.047 sec  (  1.8%)
Orbital Transformation      ....       0.000 sec  (  0.0%)
Orbital Orthonormalization  ....       0.000 sec  (  0.0%)
DIIS solution               ....       0.013 sec  (  0.5%)
SOSCF solution              ....       0.010 sec  (  0.4%)
Grid generation             ....       0.223 sec  (  8.4%)

Maximum memory used throughout the entire SCF-calculation: 61.1 MB


-------------------------------------------------------------------------------
                          DFT DISPERSION CORRECTION                            
                                                                               
                              DFTD3 V3.1  Rev 1                                
                          USING Becke-Johnson damping                          
-------------------------------------------------------------------------------
The PBE0 functional is recognized
Active option DFTDOPT                   ...         4   

molecular C6(AA) [au] = 351.155444 


            DFT-D V3
 parameters
 s6 scaling factor         :     1.0000 
 a1 scaling factor         :     0.4145 
 s8 scaling factor         :     1.2177 
 a2 scaling factor         :     4.8593 
 ad hoc parameters k1-k3   :    16.0000     1.3333    -4.0000 

 Edisp/kcal,au: -1.514665940635  -0.002413773563 
 E6   /kcal   :  -0.993426045 
 E8   /kcal   :  -0.521239895 
 % E8         :  34.412861686 

-------------------------   ----------------
Dispersion correction           -0.002413774
-------------------------   ----------------


-------------------------   --------------------
FINAL SINGLE POINT ENERGY      -153.648205449769
-------------------------   --------------------



           ************************************************************
           *        Program running with 8 parallel MPI-processes     *
           *              working on a common directory               *
           ************************************************************
------------------------------------------------------------------------------
                         ORCA SCF GRADIENT CALCULATION
------------------------------------------------------------------------------

 ... reading COSX grid (gridx3)
Gradient of the Kohn-Sham DFT energy:
Kohn-Sham wavefunction type      ... RKS
Hartree-Fock exchange scaling    ...    0.250
Number of operators              ...    1
Number of atoms                  ...    7
Basis set dimensions             ...  117
Integral neglect threshold       ... 2.5e-11
Integral primitive cutoff        ... 2.5e-12
SHARK Integral package           ... ON

Nuc. rep. gradient       (SHARK) ... done (  0.0 sec)
HCore & Overlap gradient (SHARK) ... done (  0.0 sec)
RI-J gradient            (SHARK) ... done (  0.2 sec)
COSX-gradient                    ... done (  0.3 sec)
Exchange-correlation gradient    ... done
Dispersion correction            ... done

------------------
CARTESIAN GRADIENT
------------------

   1   O   :   -0.026777379   -0.003665764    0.009456072
   2   C   :   -0.033444082   -0.001601399    0.098722249
   3   C   :   -0.009155536   -0.003707342    0.092834617
   4   H   :    0.070518179    0.027656673   -0.104067802
   5   H   :   -0.005347739   -0.004159265   -0.005247478
   6   H   :    0.026529161   -0.023749318   -0.042581008
   7   H   :   -0.022267494    0.009025877   -0.049136481

Difference to translation invariance:
           :    0.0000551093   -0.0002005390   -0.0000198309

Difference to rotation invariance:
           :    0.0001740087   -0.0000464090   -0.0000954365

Norm of the cartesian gradient     ...    0.2076458224
RMS gradient                       ...    0.0453120333
MAX gradient                       ...    0.1040678018

-------
TIMINGS
-------

Total SCF gradient time            ...        0.858 sec

One electron gradient       ....       0.013 sec  (  1.5%)
RI-J Coulomb gradient       ....       0.151 sec  ( 17.6%)
COSX gradient               ....       0.335 sec  ( 39.0%)
XC gradient                 ....       0.157 sec  ( 18.3%)

Maximum memory used throughout the entire SCFGRAD-calculation: 35.9 MB

                            ***************************************
                            *     ORCA property calculations      *
                            ***************************************

                                    ---------------------
                                    Active property flags
                                    ---------------------
   (+) Dipole Moment


------------------------------------------------------------------------------
                       ORCA ELECTRIC PROPERTIES CALCULATION
------------------------------------------------------------------------------

Dipole Moment Calculation                       ... on
Quadrupole Moment Calculation                   ... off
Polarizability Calculation                      ... off
GBWName                                         ... ox_gs_A_orca0003.gbw
Electron density                                ... ox_gs_A_orca0003.scfp
The origin for moment calculation is the CENTER OF MASS  = (-0.056852,  0.015635  0.087573)

-------------
DIPOLE MOMENT
-------------
                                X             Y             Z
Electronic contribution:     -0.17218       1.73077       0.38661
Nuclear contribution   :      0.17039      -2.47348      -0.34512
                        -----------------------------------------
Total Dipole Moment    :     -0.00179      -0.74271       0.04149
                        -----------------------------------------
Magnitude (a.u.)       :      0.74387
Magnitude (Debye)      :      1.89077



--------------------
Rotational spectrum 
--------------------
 
Rotational constants in cm-1:     0.881294     0.757437     0.481181 
Rotational constants in MHz : 26420.520201 22707.397677 14425.436906 

 Dipole components along the rotational axes: 
x,y,z [a.u.] :     0.253669    -0.694155     0.084521 
x,y,z [Debye]:     0.644776    -1.764403     0.214836 

 

Timings for individual modules:

Sum of individual times         ...        4.930 sec (=   0.082 min)
GTO integral calculation        ...        0.831 sec (=   0.014 min)  16.9 %
SCF iterations                  ...        2.940 sec (=   0.049 min)  59.6 %
SCF Gradient evaluation         ...        1.159 sec (=   0.019 min)  23.5 %
                             ****ORCA TERMINATED NORMALLY****
TOTAL RUN TIME: 0 days 0 hours 0 minutes 5 seconds 432 msec
