
                                 *****************
                                 * O   R   C   A *
                                 *****************

                                            #,                                       
                                            ###                                      
                                            ####                                     
                                            #####                                    
                                            ######                                   
                                           ########,                                 
                                     ,,################,,,,,                         
                               ,,#################################,,                 
                          ,,##########################################,,             
                       ,#########################################, ''#####,          
                    ,#############################################,,   '####,        
                  ,##################################################,,,,####,       
                ,###########''''           ''''###############################       
              ,#####''   ,,,,##########,,,,          '''####'''          '####       
            ,##' ,,,,###########################,,,                        '##       
           ' ,,###''''                  '''############,,,                           
         ,,##''                                '''############,,,,        ,,,,,,###''
      ,#''                                            '''#######################'''  
     '                                                          ''''####''''         
             ,#######,   #######,   ,#######,      ##                                
            ,#'     '#,  ##    ##  ,#'     '#,    #''#        ######   ,####,        
            ##       ##  ##   ,#'  ##            #'  '#       #        #'  '#        
            ##       ##  #######   ##           ,######,      #####,   #    #        
            '#,     ,#'  ##    ##  '#,     ,#' ,#      #,         ##   #,  ,#        
             '#######'   ##     ##  '#######'  #'      '#     #####' # '####'        



                  #######################################################
                  #                        -***-                        #
                  #          Department of theory and spectroscopy      #
                  #    Directorship and core code : Frank Neese         #
                  #        Max Planck Institute fuer Kohlenforschung    #
                  #                Kaiser Wilhelm Platz 1               #
                  #                 D-45470 Muelheim/Ruhr               #
                  #                      Germany                        #
                  #                                                     #
                  #                  All rights reserved                #
                  #                        -***-                        #
                  #######################################################


                         Program Version 5.0.2 -  RELEASE  -


 With contributions from (in alphabetic order):
   Daniel Aravena         : Magnetic Suceptibility
   Michael Atanasov       : Ab Initio Ligand Field Theory (pilot matlab implementation)
   Alexander A. Auer      : GIAO ZORA, VPT2 properties, NMR spectrum
   Ute Becker             : Parallelization
   Giovanni Bistoni       : ED, misc. LED, open-shell LED, HFLD
   Martin Brehm           : Molecular dynamics
   Dmytro Bykov           : SCF Hessian
   Vijay G. Chilkuri      : MRCI spin determinant printing, contributions to CSF-ICE
   Dipayan Datta          : RHF DLPNO-CCSD density
   Achintya Kumar Dutta   : EOM-CC, STEOM-CC
   Dmitry Ganyushin       : Spin-Orbit,Spin-Spin,Magnetic field MRCI
   Miquel Garcia          : C-PCM and meta-GGA Hessian, CC/C-PCM, Gaussian charge scheme
   Yang Guo               : DLPNO-NEVPT2, F12-NEVPT2, CIM, IAO-localization
   Andreas Hansen         : Spin unrestricted coupled pair/coupled cluster methods
   Benjamin Helmich-Paris : MC-RPA, TRAH-SCF, COSX integrals
   Lee Huntington         : MR-EOM, pCC
   Robert Izsak           : Overlap fitted RIJCOSX, COSX-SCS-MP3, EOM
   Marcus Kettner         : VPT2
   Christian Kollmar      : KDIIS, OOCD, Brueckner-CCSD(T), CCSD density, CASPT2, CASPT2-K
   Simone Kossmann        : Meta GGA functionals, TD-DFT gradient, OOMP2, MP2 Hessian
   Martin Krupicka        : Initial AUTO-CI
   Lucas Lang             : DCDCAS
   Marvin Lechner         : AUTO-CI (C++ implementation), FIC-MRCC
   Dagmar Lenk            : GEPOL surface, SMD
   Dimitrios Liakos       : Extrapolation schemes; Compound Job, initial MDCI parallelization
   Dimitrios Manganas     : Further ROCIS development; embedding schemes
   Dimitrios Pantazis     : SARC Basis sets
   Anastasios Papadopoulos: AUTO-CI, single reference methods and gradients
   Taras Petrenko         : DFT Hessian,TD-DFT gradient, ASA, ECA, R-Raman, ABS, FL, XAS/XES, NRVS
   Peter Pinski           : DLPNO-MP2, DLPNO-MP2 Gradient
   Christoph Reimann      : Effective Core Potentials
   Marius Retegan         : Local ZFS, SOC
   Christoph Riplinger    : Optimizer, TS searches, QM/MM, DLPNO-CCSD(T), (RO)-DLPNO pert. Triples
   Tobias Risthaus        : Range-separated hybrids, TD-DFT gradient, RPA, STAB
   Michael Roemelt        : Original ROCIS implementation
   Masaaki Saitow         : Open-shell DLPNO-CCSD energy and density
   Barbara Sandhoefer     : DKH picture change effects
   Avijit Sen             : IP-ROCIS
   Kantharuban Sivalingam : CASSCF convergence, NEVPT2, FIC-MRCI
   Bernardo de Souza      : ESD, SOC TD-DFT
   Georgi Stoychev        : AutoAux, RI-MP2 NMR, DLPNO-MP2 response
   Willem Van den Heuvel  : Paramagnetic NMR
   Boris Wezisla          : Elementary symmetry handling
   Frank Wennmohs         : Technical directorship


 We gratefully acknowledge several colleagues who have allowed us to
 interface, adapt or use parts of their codes:
   Stefan Grimme, W. Hujo, H. Kruse, P. Pracht,  : VdW corrections, initial TS optimization,
                  C. Bannwarth, S. Ehlert          DFT functionals, gCP, sTDA/sTD-DF
   Ed Valeev, F. Pavosevic, A. Kumar             : LibInt (2-el integral package), F12 methods
   Garnet Chan, S. Sharma, J. Yang, R. Olivares  : DMRG
   Ulf Ekstrom                                   : XCFun DFT Library
   Mihaly Kallay                                 : mrcc  (arbitrary order and MRCC methods)
   Jiri Pittner, Ondrej Demel                    : Mk-CCSD
   Frank Weinhold                                : gennbo (NPA and NBO analysis)
   Christopher J. Cramer and Donald G. Truhlar   : smd solvation model
   Lars Goerigk                                  : TD-DFT with DH, B97 family of functionals
   V. Asgeirsson, H. Jonsson                     : NEB implementation
   FAccTs GmbH                                   : IRC, NEB, NEB-TS, DLPNO-Multilevel, CI-OPT
                                                   MM, QMMM, 2- and 3-layer-ONIOM, Crystal-QMMM,
                                                   LR-CPCM, SF, NACMEs, symmetry and pop. for TD-DFT,
                                                   nearIR, NL-DFT gradient (VV10), updates on ESD,
                                                   ML-optimized integration grids
   S Lehtola, MJT Oliveira, MAL Marques          : LibXC Library
   Liviu Ungur et al                             : ANISO software


 Your calculation uses the libint2 library for the computation of 2-el integrals
 For citations please refer to: http://libint.valeyev.net

 Your ORCA version has been built with support for libXC version: 5.1.0
 For citations please refer to: https://tddft.org/programs/libxc/

 This ORCA versions uses:
   CBLAS   interface :  Fast vector & matrix operations
   LAPACKE interface :  Fast linear algebra routines
   SCALAPACK package :  Parallel linear algebra routines
   Shared memory     :  Shared parallel matrices
   BLAS/LAPACK       :  OpenBLAS 0.3.15  USE64BITINT DYNAMIC_ARCH NO_AFFINITY SkylakeX SINGLE_THREADED
        Core in use  :  SkylakeX
   Copyright (c) 2011-2014, The OpenBLAS Project


Your calculation utilizes the atom-pairwise dispersion correction
with the Becke-Johnson damping scheme (D3BJ)
Cite in your paper:
S.Grimme, S.Ehrlich, L.Goerigk, J Comput Chem, (2011), 32, 1456–1465 
S.Grimme, J.Antony, S.Ehrlich and H.Krieg, J.Chem.Phys., 132, (2010), 154104 
   

================================================================================

----- Orbital basis set information -----
Your calculation utilizes the basis: def2-TZVP
   F. Weigend and R. Ahlrichs, Phys. Chem. Chem. Phys. 7, 3297 (2005).

----- AuxJ basis set information -----
Your calculation utilizes the auxiliary basis: def2/J
   F. Weigend, Phys. Chem. Chem. Phys. 8, 1057 (2006).

================================================================================
                                        WARNINGS
                       Please study these warnings very carefully!
================================================================================


INFO   : the flag for use of the SHARK integral package has been found!

================================================================================
                                       INPUT FILE
================================================================================
NAME = ox_gs_A_orca0020.inp
|  1> ! engrad PBE0 D3BJ def2-TZVP  
|  2> %pal nprocs 8 end
|  3> %maxcore 3000
|  4>  
|  5> *xyz 0 1 
|  6> O   0.10303744624409936 0.8546913521221603 -0.012448097423953676
|  7> C   -0.6803110424522822 -0.4147516925207426 0.06843157787661744
|  8> C   0.6806433669709947 -0.41271791700007804 0.052921224342479395
|  9> H   -1.3517599043211557 -0.7274337356332887 0.818014611111995
| 10> H   -1.277293111722228 -0.632393797210202 -0.8448583673951986
| 11> H   1.2675275590209887 -0.5868400827214354 -0.9889812929107445
| 12> H   1.1786537480322423 -0.6710481949448309 0.9391794424469654
| 13> *
| 14> 
| 15>                          ****END OF INPUT****
================================================================================

                     *******************************
                     * Energy+Gradient Calculation *
                     *******************************

---------------------------------
CARTESIAN COORDINATES (ANGSTROEM)
---------------------------------
  O      0.103037    0.854691   -0.012448
  C     -0.680311   -0.414752    0.068432
  C      0.680643   -0.412718    0.052921
  H     -1.351760   -0.727434    0.818015
  H     -1.277293   -0.632394   -0.844858
  H      1.267528   -0.586840   -0.988981
  H      1.178654   -0.671048    0.939179

----------------------------
CARTESIAN COORDINATES (A.U.)
----------------------------
  NO LB      ZA    FRAG     MASS         X           Y           Z
   0 O     8.0000    0    15.999    0.194713    1.615133   -0.023523
   1 C     6.0000    0    12.011   -1.285602   -0.783767    0.129317
   2 C     6.0000    0    12.011    1.286230   -0.779924    0.100007
   3 H     1.0000    0     1.008   -2.554456   -1.374651    1.545824
   4 H     1.0000    0     1.008   -2.413734   -1.195051   -1.596551
   5 H     1.0000    0     1.008    2.395280   -1.108967   -1.868904
   6 H     1.0000    0     1.008    2.227333   -1.268097    1.774792

--------------------------------
INTERNAL COORDINATES (ANGSTROEM)
--------------------------------
 O      0   0   0     0.000000000000     0.00000000     0.00000000
 C      1   0   0     1.493874834185     0.00000000     0.00000000
 C      2   1   0     1.361044309285    58.24920594     0.00000000
 H      2   1   3     1.053797114204   128.66521415   118.50939782
 H      2   1   3     1.112588963139   113.77523664   246.09582842
 H      3   2   1     1.208433878593   119.68524374   263.65035785
 H      3   2   1     1.048905382437   117.69484349   109.44358869

---------------------------
INTERNAL COORDINATES (A.U.)
---------------------------
 O      0   0   0     0.000000000000     0.00000000     0.00000000
 C      1   0   0     2.823014314967     0.00000000     0.00000000
 C      2   1   0     2.572001000681    58.24920594     0.00000000
 H      2   1   3     1.991387946562   128.66521415   118.50939782
 H      2   1   3     2.102488439956   113.77523664   246.09582842
 H      3   2   1     2.283609081494   119.68524374   263.65035785
 H      3   2   1     1.982143913202   117.69484349   109.44358869

---------------------
BASIS SET INFORMATION
---------------------
There are 3 groups of distinct atoms

 Group   1 Type O   : 11s6p2d1f contracted to 5s3p2d1f pattern {62111/411/11/1}
 Group   2 Type C   : 11s6p2d1f contracted to 5s3p2d1f pattern {62111/411/11/1}
 Group   3 Type H   : 5s1p contracted to 3s1p pattern {311/1}

Atom   0O    basis set group =>   1
Atom   1C    basis set group =>   2
Atom   2C    basis set group =>   2
Atom   3H    basis set group =>   3
Atom   4H    basis set group =>   3
Atom   5H    basis set group =>   3
Atom   6H    basis set group =>   3
---------------------------------
AUXILIARY/J BASIS SET INFORMATION
---------------------------------
There are 3 groups of distinct atoms

 Group   1 Type O   : 12s5p4d2f1g contracted to 6s4p3d1f1g pattern {711111/2111/211/2/1}
 Group   2 Type C   : 12s5p4d2f1g contracted to 6s4p3d1f1g pattern {711111/2111/211/2/1}
 Group   3 Type H   : 5s2p1d contracted to 3s1p1d pattern {311/2/1}

Atom   0O    basis set group =>   1
Atom   1C    basis set group =>   2
Atom   2C    basis set group =>   2
Atom   3H    basis set group =>   3
Atom   4H    basis set group =>   3
Atom   5H    basis set group =>   3
Atom   6H    basis set group =>   3


           ************************************************************
           *        Program running with 8 parallel MPI-processes     *
           *              working on a common directory               *
           ************************************************************
------------------------------------------------------------------------------
                           ORCA GTO INTEGRAL CALCULATION
                           -- RI-GTO INTEGRALS CHOSEN --
------------------------------------------------------------------------------
------------------------------------------------------------------------------
                   ___                                                        
                  /   \      - P O W E R E D   B Y -                         
                 /     \                                                     
                 |  |  |   _    _      __       _____    __    __             
                 |  |  |  | |  | |    /  \     |  _  \  |  |  /  |          
                  \  \/   | |  | |   /    \    | | | |  |  | /  /          
                 / \  \   | |__| |  /  /\  \   | |_| |  |  |/  /          
                |  |  |   |  __  | /  /__\  \  |    /   |      \           
                |  |  |   | |  | | |   __   |  |    \   |  |\   \          
                \     /   | |  | | |  |  |  |  | |\  \  |  | \   \       
                 \___/    |_|  |_| |__|  |__|  |_| \__\ |__|  \__/        
                                                                              
                      - O R C A' S   B I G   F R I E N D -                    
                                      &                                       
                       - I N T E G R A L  F E E D E R -                       
                                                                              
 v1 FN, 2020, v2 2021                                                         
------------------------------------------------------------------------------


Reading SHARK input file ox_gs_A_orca0020.SHARKINP.tmp ... ok
----------------------
SHARK INTEGRAL PACKAGE
----------------------

Number of atoms                             ...      7
Number of basis functions                   ...    117
Number of shells                            ...     49
Maximum angular momentum                    ...      3
Integral batch strategy                     ... SHARK/LIBINT Hybrid
RI-J (if used) integral strategy            ... SPLIT-RIJ (Revised 2003 algorithm where possible)
Printlevel                                  ...      1
Contraction scheme used                     ... SEGMENTED contraction
Coulomb Range Separation                    ... NOT USED
Exchange Range Separation                   ... NOT USED
Finite Nucleus Model                        ... NOT USED
Auxiliary Coulomb fitting basis             ... AVAILABLE
   # of basis functions in Aux-J            ...    191
   # of shells in Aux-J                     ...     65
   Maximum angular momentum in Aux-J        ...      4
Auxiliary J/K fitting basis                 ... NOT available
Auxiliary Correlation fitting basis         ... NOT available
Auxiliary 'external' fitting basis          ... NOT available
Integral threshold                          ...     2.500000e-11
Primitive cut-off                           ...     2.500000e-12
Primitive pair pre-selection threshold      ...     2.500000e-12

Calculating pre-screening integrals         ... done (  0.0 sec) Dimension = 49
Organizing shell pair data                  ... done (  0.0 sec)
Shell pair information
Total number of shell pairs                 ...      1225
Shell pairs after pre-screening             ...      1220
Total number of primitive shell pairs       ...      3648
Primitive shell pairs kept                  ...      3152
          la=0 lb=0:    373 shell pairs
          la=1 lb=0:    351 shell pairs
          la=1 lb=1:     91 shell pairs
          la=2 lb=0:    162 shell pairs
          la=2 lb=1:     78 shell pairs
          la=2 lb=2:     21 shell pairs
          la=3 lb=0:     81 shell pairs
          la=3 lb=1:     39 shell pairs
          la=3 lb=2:     18 shell pairs
          la=3 lb=3:      6 shell pairs

Calculating one electron integrals          ... done (  0.0 sec)
Calculating RI/J V-Matrix + Cholesky decomp.... done (  0.0 sec)
Calculating Nuclear repulsion               ... done (  0.0 sec) ENN=     75.771494482836 Eh

SHARK setup successfully completed in   0.1 seconds

Maximum memory used throughout the entire GTOINT-calculation: 14.9 MB


           ************************************************************
           *        Program running with 8 parallel MPI-processes     *
           *              working on a common directory               *
           ************************************************************
-------------------------------------------------------------------------------
                                 ORCA SCF
-------------------------------------------------------------------------------

------------
SCF SETTINGS
------------
Hamiltonian:
 Density Functional     Method          .... DFT(GTOs)
 Exchange Functional    Exchange        .... PBE
   PBE kappa parameter   XKappa         ....  0.804000
   PBE mue parameter    XMuePBE         ....  0.219520
 Correlation Functional Correlation     .... PBE
   PBE beta parameter  CBetaPBE         ....  0.066725
 LDA part of GGA corr.  LDAOpt          .... PW91-LDA
 Gradients option       PostSCFGGA      .... off
 Hybrid DFT is turned on
   Fraction HF Exchange ScalHFX         ....  0.250000
   Scaling of DF-GGA-X  ScalDFX         ....  0.750000
   Scaling of DF-GGA-C  ScalDFC         ....  1.000000
   Scaling of DF-LDA-C  ScalLDAC        ....  1.000000
   Perturbative correction              ....  0.000000
   Density functional embedding theory  .... OFF
   NL short-range parameter             ....  6.900000
 RI-approximation to the Coulomb term is turned on
   Number of AuxJ basis functions       .... 191
   RIJ-COSX (HFX calculated with COS-X)).... on


General Settings:
 Integral files         IntName         .... ox_gs_A_orca0020
 Hartree-Fock type      HFTyp           .... RHF
 Total Charge           Charge          ....    0
 Multiplicity           Mult            ....    1
 Number of Electrons    NEL             ....   24
 Basis Dimension        Dim             ....  117
 Nuclear Repulsion      ENuc            ....     75.7714944828 Eh

Convergence Acceleration:
 DIIS                   CNVDIIS         .... on
   Start iteration      DIISMaxIt       ....    12
   Startup error        DIISStart       ....  0.200000
   # of expansion vecs  DIISMaxEq       ....     5
   Bias factor          DIISBfac        ....   1.050
   Max. coefficient     DIISMaxC        ....  10.000
 Trust-Rad. Augm. Hess. CNVTRAH         .... auto
   Auto Start mean grad. ratio tolernc. ....  1.125000
   Auto Start start iteration           ....    20
   Auto Start num. interpolation iter.  ....    10
   Max. Number of Micro iterations      ....    16
   Max. Number of Macro iterations      .... Maxiter - #DIIS iter
   Number of Davidson start vectors     ....     2
   Converg. threshold I  (grad. norm)   ....   1.000e-05
   Converg. threshold II (energy diff.) ....   1.000e-08
   Grad. Scal. Fac. for Micro threshold ....   0.100
   Minimum threshold for Micro iter.    ....   0.010
   NR start threshold (gradient norm)   ....   0.001
   Initial trust radius                 ....   0.400
   Minimum AH scaling param. (alpha)    ....   1.000
   Maximum AH scaling param. (alpha)    .... 1000.000
   Orbital update algorithm             .... Taylor
   White noise on init. David. guess    .... on
   Maximum white noise                  ....   0.010
   Quad. conv. algorithm                .... NR
 SOSCF                  CNVSOSCF        .... on
   Start iteration      SOSCFMaxIt      ....   150
   Startup grad/error   SOSCFStart      ....  0.003300
 Level Shifting         CNVShift        .... on
   Level shift para.    LevelShift      ....    0.2500
   Turn off err/grad.   ShiftErr        ....    0.0010
 Zerner damping         CNVZerner       .... off
 Static damping         CNVDamp         .... on
   Fraction old density DampFac         ....    0.7000
   Max. Damping (<1)    DampMax         ....    0.9800
   Min. Damping (>=0)   DampMin         ....    0.0000
   Turn off err/grad.   DampErr         ....    0.1000
 Fernandez-Rico         CNVRico         .... off

SCF Procedure:
 Maximum # iterations   MaxIter         ....   125
 SCF integral mode      SCFMode         .... Direct
   Integral package                     .... SHARK and LIBINT hybrid scheme
 Reset frequency        DirectResetFreq ....    20
 Integral Threshold     Thresh          ....  2.500e-11 Eh
 Primitive CutOff       TCut            ....  2.500e-12 Eh

Convergence Tolerance:
 Convergence Check Mode ConvCheckMode   .... Total+1el-Energy
 Convergence forced     ConvForced      .... 0
 Energy Change          TolE            ....  1.000e-08 Eh
 1-El. energy change                    ....  1.000e-05 Eh
 Orbital Gradient       TolG            ....  1.000e-05
 Orbital Rotation angle TolX            ....  1.000e-05
 DIIS Error             TolErr          ....  5.000e-07


Diagonalization of the overlap matrix:
Smallest eigenvalue                        ... 2.013e-04
Time for diagonalization                   ...    0.001 sec
Threshold for overlap eigenvalues          ... 1.000e-08
Number of eigenvalues below threshold      ... 0
Time for construction of square roots      ...    0.001 sec
Total time needed                          ...    0.003 sec

Time for model grid setup =    0.021 sec

------------------------------
INITIAL GUESS: MODEL POTENTIAL
------------------------------
Loading Hartree-Fock densities                     ... done
Calculating cut-offs                               ... done
Initializing the effective Hamiltonian             ... done
Setting up the integral package (SHARK)            ... done
Starting the Coulomb interaction                   ... done (   0.0 sec)
Reading the grid                                   ... done
Mapping shells                                     ... done
Starting the XC term evaluation                    ... done (   0.0 sec)
  promolecular density results
     # of electrons  =     23.997239719
     EX              =    -19.554399795
     EC              =     -0.783420756
     EX+EC           =    -20.337820551
Transforming the Hamiltonian                       ... done (   0.0 sec)
Diagonalizing the Hamiltonian                      ... done (   0.0 sec)
Back transforming the eigenvectors                 ... done (   0.0 sec)
Now organizing SCF variables                       ... done
                      ------------------
                      INITIAL GUESS DONE (   0.0 sec)
                      ------------------
-------------------
DFT GRID GENERATION
-------------------

General Integration Accuracy     IntAcc      ... 4.388
Radial Grid Type                 RadialGrid  ... OptM3 with GC (2021)
Angular Grid (max. ang.)         AngularGrid ... 4 (Lebedev-302)
Angular grid pruning method      GridPruning ... 4 (adaptive)
Weight generation scheme         WeightScheme... Becke
Basis function cutoff            BFCut       ... 1.0000e-11
Integration weight cutoff        WCut        ... 1.0000e-14
Angular grids for H and He will be reduced by one unit
Partially contracted basis set               ... off
Rotationally invariant grid construction     ... off

Total number of grid points                  ...    31290
Total number of batches                      ...      492
Average number of points per batch           ...       63
Average number of grid points per atom       ...     4470
Time for grid setup =    0.113 sec

--------------------
COSX GRID GENERATION
--------------------

GRIDX 1
-------
General Integration Accuracy     IntAcc      ... 3.816
Radial Grid Type                 RadialGrid  ... OptM3 with GC (2021)
Angular Grid (max. ang.)         AngularGrid ... 1 (Lebedev-50)
Angular grid pruning method      GridPruning ... 4 (adaptive)
Weight generation scheme         WeightScheme... Becke
Basis function cutoff            BFCut       ... 1.0000e-11
Integration weight cutoff        WCut        ... 1.0000e-14
Angular grids for H and He will be reduced by one unit
Partially contracted basis set               ... on
Rotationally invariant grid construction     ... off

Total number of grid points                  ...     4033
Total number of batches                      ...       68
Average number of points per batch           ...       59
Average number of grid points per atom       ...      576
UseSFitting                                  ... on

GRIDX 2
-------
General Integration Accuracy     IntAcc      ... 4.020
Radial Grid Type                 RadialGrid  ... OptM3 with GC (2021)
Angular Grid (max. ang.)         AngularGrid ... 2 (Lebedev-110)
Angular grid pruning method      GridPruning ... 4 (adaptive)
Weight generation scheme         WeightScheme... Becke
Basis function cutoff            BFCut       ... 1.0000e-11
Integration weight cutoff        WCut        ... 1.0000e-14
Angular grids for H and He will be reduced by one unit
Partially contracted basis set               ... on
Rotationally invariant grid construction     ... off

Total number of grid points                  ...     8709
Total number of batches                      ...      140
Average number of points per batch           ...       62
Average number of grid points per atom       ...     1244
UseSFitting                                  ... on

GRIDX 3
-------
General Integration Accuracy     IntAcc      ... 4.338
Radial Grid Type                 RadialGrid  ... OptM3 with GC (2021)
Angular Grid (max. ang.)         AngularGrid ... 3 (Lebedev-194)
Angular grid pruning method      GridPruning ... 4 (adaptive)
Weight generation scheme         WeightScheme... Becke
Basis function cutoff            BFCut       ... 1.0000e-11
Integration weight cutoff        WCut        ... 1.0000e-14
Angular grids for H and He will be reduced by one unit
Partially contracted basis set               ... on
Rotationally invariant grid construction     ... off

Total number of grid points                  ...    19225
Total number of batches                      ...      305
Average number of points per batch           ...       63
Average number of grid points per atom       ...     2746
UseSFitting                                  ... on

Time for X-Grid setup             =    0.073 sec

--------------
SCF ITERATIONS
--------------
ITER       Energy         Delta-E        Max-DP      RMS-DP      [F,P]     Damp
               ***  Starting incremental Fock matrix formation  ***
  0   -153.5744726712   0.000000000000 0.03223436  0.00120522  0.1700381 0.7000
  1   -153.6058525672  -0.031379895986 0.01769837  0.00090399  0.0718326 0.7000
                               ***Turning on DIIS***
  2   -153.6187655241  -0.012912956914 0.02912375  0.00154011  0.0338536 0.0000
  3   -153.6389051651  -0.020139640998 0.01364914  0.00068406  0.0394490 0.0000
  4   -153.6433135769  -0.004408411786 0.00425153  0.00018894  0.0075744 0.0000
  5   -153.6434804552  -0.000166878326 0.00165003  0.00007408  0.0048126 0.0000
                      *** Initiating the SOSCF procedure ***
                           *** Shutting down DIIS ***
                      *** Re-Reading the Fockian *** 
                      *** Removing any level shift *** 
ITER      Energy       Delta-E        Grad      Rot      Max-DP    RMS-DP
  6   -153.64351252  -0.0000320612  0.000133  0.000133  0.000807  0.000034
               *** Restarting incremental Fock matrix formation ***
  7   -153.64350753   0.0000049886  0.000061  0.000112  0.000126  0.000006
  8   -153.64350746   0.0000000653  0.000099  0.000082  0.000088  0.000004
  9   -153.64350759  -0.0000001292  0.000010  0.000017  0.000029  0.000001
 10   -153.64350759   0.0000000019  0.000013  0.000010  0.000017  0.000001
                 **** Energy Check signals convergence ****
              ***Rediagonalizing the Fockian in SOSCF/NRSCF***

               *****************************************************
               *                     SUCCESS                       *
               *           SCF CONVERGED AFTER  11 CYCLES          *
               *****************************************************

Old exchange energy                            =     -4.999472828 Eh
New exchange energy                            =     -4.999470118 Eh
Exchange energy change after final integration =      0.000002710 Eh
Total energy after final integration           =   -153.643504884 Eh
Final COS-X integration done in                =     0.251 sec

----------------
TOTAL SCF ENERGY
----------------

Total Energy       :         -153.64350488 Eh           -4180.85232 eV

Components:
Nuclear Repulsion  :           75.77149448 Eh            2061.84719 eV
Electronic Energy  :         -229.41499937 Eh           -6242.69951 eV
One Electron Energy:         -358.14504399 Eh           -9745.62210 eV
Two Electron Energy:          128.73004463 Eh            3502.92260 eV
Max COSX asymmetry :            0.00000168 Eh               0.00005 eV

Virial components:
Potential Energy   :         -306.72418050 Eh           -8346.38927 eV
Kinetic Energy     :          153.08067562 Eh            4165.53696 eV
Virial Ratio       :            2.00367668


DFT components:
N(Alpha)           :       11.999999796601 electrons
N(Beta)            :       11.999999796601 electrons
N(Total)           :       23.999999593202 electrons
E(X)               :      -14.970193884735 Eh       
E(C)               :       -0.791224924059 Eh       
E(XC)              :      -15.761418808794 Eh       
DFET-embed. en.    :        0.000000000000 Eh       

---------------
SCF CONVERGENCE
---------------

  Last Energy change         ...   -4.8195e-09  Tolerance :   1.0000e-08
  Last MAX-Density change    ...    1.5543e-15  Tolerance :   1.0000e-07
  Last RMS-Density change    ...    2.8769e-17  Tolerance :   5.0000e-09
  Last Orbital Gradient      ...    3.5751e-07  Tolerance :   1.0000e-05
  Last Orbital Rotation      ...    6.7013e-07  Tolerance :   1.0000e-05

             **** THE GBW FILE WAS UPDATED (ox_gs_A_orca0020.gbw) ****
             **** DENSITY ox_gs_A_orca0020.scfp WAS UPDATED ****
             **** ENERGY FILE WAS UPDATED (ox_gs_A_orca0020.en.tmp) ****
             **** THE GBW FILE WAS UPDATED (ox_gs_A_orca0020.gbw) ****
             **** DENSITY ox_gs_A_orca0020.scfp WAS UPDATED ****
----------------
ORBITAL ENERGIES
----------------

  NO   OCC          E(Eh)            E(eV) 
   0   2.0000     -19.224611      -523.1283 
   1   2.0000     -10.275327      -279.6059 
   2   2.0000     -10.272082      -279.5176 
   3   2.0000      -1.107507       -30.1368 
   4   2.0000      -0.725693       -19.7471 
   5   2.0000      -0.646287       -17.5864 
   6   2.0000      -0.532384       -14.4869 
   7   2.0000      -0.511380       -13.9154 
   8   2.0000      -0.412733       -11.2310 
   9   2.0000      -0.367737       -10.0066 
  10   2.0000      -0.352077        -9.5805 
  11   2.0000      -0.288727        -7.8567 
  12   0.0000       0.052119         1.4182 
  13   0.0000       0.057683         1.5696 
  14   0.0000       0.085419         2.3244 
  15   0.0000       0.096093         2.6148 
  16   0.0000       0.112955         3.0737 
  17   0.0000       0.155934         4.2432 
  18   0.0000       0.184848         5.0300 
  19   0.0000       0.226636         6.1671 
  20   0.0000       0.265426         7.2226 
  21   0.0000       0.271304         7.3826 
  22   0.0000       0.287602         7.8260 
  23   0.0000       0.320812         8.7297 
  24   0.0000       0.382283        10.4025 
  25   0.0000       0.394525        10.7356 
  26   0.0000       0.409632        11.1466 
  27   0.0000       0.443786        12.0760 
  28   0.0000       0.450152        12.2493 
  29   0.0000       0.474696        12.9171 
  30   0.0000       0.513644        13.9770 
  31   0.0000       0.521558        14.1923 
  32   0.0000       0.544354        14.8126 
  33   0.0000       0.683480        18.5984 
  34   0.0000       0.708370        19.2757 
  35   0.0000       0.753213        20.4960 
  36   0.0000       0.823218        22.4009 
  37   0.0000       0.853275        23.2188 
  38   0.0000       0.885308        24.0904 
  39   0.0000       0.954270        25.9670 
  40   0.0000       1.005241        27.3540 
  41   0.0000       1.050400        28.5828 
  42   0.0000       1.096460        29.8362 
  43   0.0000       1.113819        30.3086 
  44   0.0000       1.193225        32.4693 
  45   0.0000       1.362927        37.0871 
  46   0.0000       1.471624        40.0449 
  47   0.0000       1.490286        40.5528 
  48   0.0000       1.516940        41.2780 
  49   0.0000       1.526526        41.5389 
  50   0.0000       1.585209        43.1357 
  51   0.0000       1.607390        43.7393 
  52   0.0000       1.642052        44.6825 
  53   0.0000       1.725579        46.9554 
  54   0.0000       1.776174        48.3321 
  55   0.0000       1.798036        48.9271 
  56   0.0000       1.824113        49.6366 
  57   0.0000       1.875796        51.0430 
  58   0.0000       1.954699        53.1901 
  59   0.0000       1.985162        54.0190 
  60   0.0000       2.107693        57.3533 
  61   0.0000       2.166101        58.9426 
  62   0.0000       2.176914        59.2368 
  63   0.0000       2.270716        61.7893 
  64   0.0000       2.284320        62.1595 
  65   0.0000       2.370400        64.5019 
  66   0.0000       2.405321        65.4521 
  67   0.0000       2.522031        68.6280 
  68   0.0000       2.535078        68.9830 
  69   0.0000       2.562004        69.7157 
  70   0.0000       2.644076        71.9490 
  71   0.0000       2.682929        73.0062 
  72   0.0000       2.704744        73.5998 
  73   0.0000       2.717475        73.9463 
  74   0.0000       2.767606        75.3104 
  75   0.0000       2.808824        76.4320 
  76   0.0000       2.863681        77.9247 
  77   0.0000       2.951867        80.3244 
  78   0.0000       2.981102        81.1199 
  79   0.0000       3.003047        81.7171 
  80   0.0000       3.058411        83.2236 
  81   0.0000       3.093894        84.1891 
  82   0.0000       3.123975        85.0077 
  83   0.0000       3.247304        88.3636 
  84   0.0000       3.296033        89.6896 
  85   0.0000       3.372863        91.7803 
  86   0.0000       3.397473        92.4499 
  87   0.0000       3.449716        93.8716 
  88   0.0000       3.604549        98.0848 
  89   0.0000       3.634884        98.9102 
  90   0.0000       3.651444        99.3608 
  91   0.0000       3.719606       101.2156 
  92   0.0000       3.919738       106.6615 
  93   0.0000       4.064663       110.6051 
  94   0.0000       4.173132       113.5567 
  95   0.0000       4.254019       115.7577 
  96   0.0000       4.285922       116.6259 
  97   0.0000       4.402366       119.7945 
  98   0.0000       4.483033       121.9895 
  99   0.0000       4.544311       123.6570 
 100   0.0000       4.699402       127.8772 
 101   0.0000       4.841122       131.7336 
 102   0.0000       5.277548       143.6094 
 103   0.0000       5.412181       147.2729 
 104   0.0000       5.649009       153.7174 
 105   0.0000       5.736314       156.0931 
 106   0.0000       5.800573       157.8416 
 107   0.0000       5.859189       159.4366 
 108   0.0000       6.046773       164.5411 
 109   0.0000       6.555435       178.3824 
 110   0.0000       6.595384       179.4695 
 111   0.0000       6.802906       185.1165 
 112   0.0000       6.965661       189.5453 
 113   0.0000       7.164393       194.9531 
 114   0.0000      22.284328       606.3874 
 115   0.0000      22.603719       615.0785 
 116   0.0000      43.835921      1192.8361 

                    ********************************
                    * MULLIKEN POPULATION ANALYSIS *
                    ********************************

-----------------------
MULLIKEN ATOMIC CHARGES
-----------------------
   0 O :   -0.322120
   1 C :   -0.095950
   2 C :   -0.035260
   3 H :    0.130053
   4 H :    0.110464
   5 H :    0.104012
   6 H :    0.108802
Sum of atomic charges:    0.0000000

--------------------------------
MULLIKEN REDUCED ORBITAL CHARGES
--------------------------------
  0 O s       :     3.870409  s :     3.870409
      pz      :     1.838242  p :     4.408260
      px      :     1.344340
      py      :     1.225678
      dz2     :     0.005686  d :     0.041259
      dxz     :     0.002298
      dyz     :     0.006983
      dx2y2   :     0.011887
      dxy     :     0.014405
      f0      :     0.000255  f :     0.002192
      f+1     :     0.000164
      f-1     :     0.000474
      f+2     :     0.000127
      f-2     :     0.000178
      f+3     :     0.000435
      f-3     :     0.000559
  1 C s       :     3.198838  s :     3.198838
      pz      :     1.065854  p :     2.777321
      px      :     0.936366
      py      :     0.775102
      dz2     :     0.004291  d :     0.108465
      dxz     :     0.028623
      dyz     :     0.026317
      dx2y2   :     0.027372
      dxy     :     0.021862
      f0      :     0.001323  f :     0.011327
      f+1     :     0.001031
      f-1     :     0.000618
      f+2     :     0.001661
      f-2     :     0.001593
      f+3     :     0.002092
      f-3     :     0.003009
  2 C s       :     3.192871  s :     3.192871
      pz      :     1.029276  p :     2.697654
      px      :     0.932326
      py      :     0.736052
      dz2     :     0.006551  d :     0.132239
      dxz     :     0.028613
      dyz     :     0.037159
      dx2y2   :     0.033747
      dxy     :     0.026168
      f0      :     0.001857  f :     0.012497
      f+1     :     0.001217
      f-1     :     0.000770
      f+2     :     0.001961
      f-2     :     0.001435
      f+3     :     0.001655
      f-3     :     0.003602
  3 H s       :     0.847312  s :     0.847312
      pz      :     0.009132  p :     0.022635
      px      :     0.008975
      py      :     0.004529
  4 H s       :     0.868929  s :     0.868929
      pz      :     0.010253  p :     0.020607
      px      :     0.006737
      py      :     0.003618
  5 H s       :     0.879262  s :     0.879262
      pz      :     0.009498  p :     0.016726
      px      :     0.004670
      py      :     0.002559
  6 H s       :     0.868871  s :     0.868871
      pz      :     0.011209  p :     0.022327
      px      :     0.006761
      py      :     0.004357


                     *******************************
                     * LOEWDIN POPULATION ANALYSIS *
                     *******************************

----------------------
LOEWDIN ATOMIC CHARGES
----------------------
   0 O :    0.121171
   1 C :   -0.263576
   2 C :   -0.354236
   3 H :    0.114476
   4 H :    0.128212
   5 H :    0.141022
   6 H :    0.112931

-------------------------------
LOEWDIN REDUCED ORBITAL CHARGES
-------------------------------
  0 O s       :     3.405272  s :     3.405272
      pz      :     1.727215  p :     4.380670
      px      :     1.318700
      py      :     1.334755
      dz2     :     0.011631  d :     0.086555
      dxz     :     0.006439
      dyz     :     0.015202
      dx2y2   :     0.030413
      dxy     :     0.022870
      f0      :     0.000603  f :     0.006333
      f+1     :     0.000205
      f-1     :     0.000984
      f+2     :     0.000289
      f-2     :     0.000731
      f+3     :     0.001176
      f-3     :     0.002345
  1 C s       :     2.794946  s :     2.794946
      pz      :     1.056918  p :     2.919960
      px      :     1.073348
      py      :     0.789695
      dz2     :     0.041507  d :     0.479407
      dxz     :     0.159132
      dyz     :     0.072324
      dx2y2   :     0.102655
      dxy     :     0.103788
      f0      :     0.007645  f :     0.069263
      f+1     :     0.005776
      f-1     :     0.005283
      f+2     :     0.009470
      f-2     :     0.006103
      f+3     :     0.014155
      f-3     :     0.020831
  2 C s       :     2.805647  s :     2.805647
      pz      :     1.017296  p :     2.894101
      px      :     1.071647
      py      :     0.805158
      dz2     :     0.058588  d :     0.564792
      dxz     :     0.151808
      dyz     :     0.103187
      dx2y2   :     0.129207
      dxy     :     0.122002
      f0      :     0.012932  f :     0.089696
      f+1     :     0.006216
      f-1     :     0.007012
      f+2     :     0.013285
      f-2     :     0.006146
      f+3     :     0.015636
      f-3     :     0.028470
  3 H s       :     0.817477  s :     0.817477
      pz      :     0.029755  p :     0.068047
      px      :     0.024164
      py      :     0.014128
  4 H s       :     0.814768  s :     0.814768
      pz      :     0.029958  p :     0.057020
      px      :     0.016493
      py      :     0.010570
  5 H s       :     0.816066  s :     0.816066
      pz      :     0.025405  p :     0.042912
      px      :     0.010967
      py      :     0.006540
  6 H s       :     0.821281  s :     0.821281
      pz      :     0.034085  p :     0.065788
      px      :     0.018692
      py      :     0.013011


                      *****************************
                      * MAYER POPULATION ANALYSIS *
                      *****************************

  NA   - Mulliken gross atomic population
  ZA   - Total nuclear charge
  QA   - Mulliken gross atomic charge
  VA   - Mayer's total valence
  BVA  - Mayer's bonded valence
  FA   - Mayer's free valence

  ATOM       NA         ZA         QA         VA         BVA        FA
  0 O      8.3221     8.0000    -0.3221     1.9984     1.9984    -0.0000
  1 C      6.0960     6.0000    -0.0960     3.9942     3.9942     0.0000
  2 C      6.0353     6.0000    -0.0353     4.0168     4.0168     0.0000
  3 H      0.8699     1.0000     0.1301     0.9520     0.9520     0.0000
  4 H      0.8895     1.0000     0.1105     0.9586     0.9586     0.0000
  5 H      0.8960     1.0000     0.1040     0.9643     0.9643     0.0000
  6 H      0.8912     1.0000     0.1088     0.9538     0.9538     0.0000

  Mayer bond orders larger than 0.100000
B(  0-O ,  1-C ) :   0.9728 B(  0-O ,  2-C ) :   0.9956 B(  1-C ,  2-C ) :   1.1097 
B(  1-C ,  3-H ) :   0.9473 B(  1-C ,  4-H ) :   0.9470 B(  2-C ,  5-H ) :   0.9417 
B(  2-C ,  6-H ) :   0.9489 

-------
TIMINGS
-------

Total SCF time: 0 days 0 hours 0 min 2 sec 

Total time                  ....       2.538 sec
Sum of individual times     ....       2.343 sec  ( 92.3%)

Fock matrix formation       ....       2.077 sec  ( 81.8%)
  Split-RI-J                ....       0.226 sec  ( 10.9% of F)
  Chain of spheres X        ....       1.399 sec  ( 67.4% of F)
  XC integration            ....       0.395 sec  ( 19.0% of F)
    Basis function eval.    ....       0.107 sec  ( 27.1% of XC)
    Density eval.           ....       0.081 sec  ( 20.4% of XC)
    XC-Functional eval.     ....       0.022 sec  (  5.6% of XC)
    XC-Potential eval.      ....       0.141 sec  ( 35.7% of XC)
Diagonalization             ....       0.016 sec  (  0.6%)
Density matrix formation    ....       0.001 sec  (  0.1%)
Population analysis         ....       0.002 sec  (  0.1%)
Initial guess               ....       0.017 sec  (  0.7%)
Orbital Transformation      ....       0.000 sec  (  0.0%)
Orbital Orthonormalization  ....       0.000 sec  (  0.0%)
DIIS solution               ....       0.013 sec  (  0.5%)
SOSCF solution              ....       0.010 sec  (  0.4%)
Grid generation             ....       0.207 sec  (  8.1%)

Maximum memory used throughout the entire SCF-calculation: 61.1 MB


-------------------------------------------------------------------------------
                          DFT DISPERSION CORRECTION                            
                                                                               
                              DFTD3 V3.1  Rev 1                                
                          USING Becke-Johnson damping                          
-------------------------------------------------------------------------------
The PBE0 functional is recognized
Active option DFTDOPT                   ...         4   

molecular C6(AA) [au] = 351.279919 


            DFT-D V3
 parameters
 s6 scaling factor         :     1.0000 
 a1 scaling factor         :     0.4145 
 s8 scaling factor         :     1.2177 
 a2 scaling factor         :     4.8593 
 ad hoc parameters k1-k3   :    16.0000     1.3333    -4.0000 

 Edisp/kcal,au: -1.512645624163  -0.002410553984 
 E6   /kcal   :  -0.991865143 
 E8   /kcal   :  -0.520780481 
 % E8         :  34.428452573 

-------------------------   ----------------
Dispersion correction           -0.002410554
-------------------------   ----------------


-------------------------   --------------------
FINAL SINGLE POINT ENERGY      -153.645915437960
-------------------------   --------------------



           ************************************************************
           *        Program running with 8 parallel MPI-processes     *
           *              working on a common directory               *
           ************************************************************
------------------------------------------------------------------------------
                         ORCA SCF GRADIENT CALCULATION
------------------------------------------------------------------------------

 ... reading COSX grid (gridx3)
Gradient of the Kohn-Sham DFT energy:
Kohn-Sham wavefunction type      ... RKS
Hartree-Fock exchange scaling    ...    0.250
Number of operators              ...    1
Number of atoms                  ...    7
Basis set dimensions             ...  117
Integral neglect threshold       ... 2.5e-11
Integral primitive cutoff        ... 2.5e-12
SHARK Integral package           ... ON

Nuc. rep. gradient       (SHARK) ... done (  0.0 sec)
HCore & Overlap gradient (SHARK) ... done (  0.0 sec)
RI-J gradient            (SHARK) ... done (  0.1 sec)
COSX-gradient                    ... done (  0.3 sec)
Exchange-correlation gradient    ... done
Dispersion correction            ... done

------------------
CARTESIAN GRADIENT
------------------

   1   O   :    0.036435512    0.016435936   -0.025151019
   2   C   :    0.072749963   -0.016349731    0.061849728
   3   C   :   -0.093081695    0.005369433    0.077467078
   4   H   :    0.000462471   -0.009246446   -0.039535505
   5   H   :   -0.017493801   -0.007179279   -0.001096547
   6   H   :    0.022768762    0.006384348   -0.051584785
   7   H   :   -0.021912162    0.004488133   -0.021957519

Difference to translation invariance:
           :   -0.0000709485   -0.0000976060   -0.0000085700

Difference to rotation invariance:
           :   -0.0000469350    0.0000435207    0.0001302411

Norm of the cartesian gradient     ...    0.1803325551
RMS gradient                       ...    0.0393517897
MAX gradient                       ...    0.0930816946

-------
TIMINGS
-------

Total SCF gradient time            ...        0.679 sec

One electron gradient       ....       0.010 sec  (  1.4%)
RI-J Coulomb gradient       ....       0.074 sec  ( 10.8%)
COSX gradient               ....       0.301 sec  ( 44.4%)
XC gradient                 ....       0.152 sec  ( 22.4%)

Maximum memory used throughout the entire SCFGRAD-calculation: 35.9 MB

                            ***************************************
                            *     ORCA property calculations      *
                            ***************************************

                                    ---------------------
                                    Active property flags
                                    ---------------------
   (+) Dipole Moment


------------------------------------------------------------------------------
                       ORCA ELECTRIC PROPERTIES CALCULATION
------------------------------------------------------------------------------

Dipole Moment Calculation                       ... on
Quadrupole Moment Calculation                   ... off
Polarizability Calculation                      ... off
GBWName                                         ... ox_gs_A_orca0020.gbw
Electron density                                ... ox_gs_A_orca0020.scfp
The origin for moment calculation is the CENTER OF MASS  = ( 0.062979,  0.047050  0.050667)

-------------
DIPOLE MOMENT
-------------
                                X             Y             Z
Electronic contribution:      0.17680       1.72188       0.25592
Nuclear contribution   :     -0.29560      -2.53704      -0.17311
                        -----------------------------------------
Total Dipole Moment    :     -0.11880      -0.81516       0.08282
                        -----------------------------------------
Magnitude (a.u.)       :      0.82792
Magnitude (Debye)      :      2.10441



--------------------
Rotational spectrum 
--------------------
 
Rotational constants in cm-1:     0.875255     0.746048     0.477239 
Rotational constants in MHz : 26239.488060 22365.958991 14307.261992 

 Dipole components along the rotational axes: 
x,y,z [a.u.] :    -0.649199     0.512931     0.029984 
x,y,z [Debye]:    -1.650132     1.303767     0.076213 

 

Timings for individual modules:

Sum of individual times         ...        3.962 sec (=   0.066 min)
GTO integral calculation        ...        0.310 sec (=   0.005 min)   7.8 %
SCF iterations                  ...        2.732 sec (=   0.046 min)  69.0 %
SCF Gradient evaluation         ...        0.920 sec (=   0.015 min)  23.2 %
                             ****ORCA TERMINATED NORMALLY****
TOTAL RUN TIME: 0 days 0 hours 0 minutes 4 seconds 242 msec
