
                                 *****************
                                 * O   R   C   A *
                                 *****************

                                            #,                                       
                                            ###                                      
                                            ####                                     
                                            #####                                    
                                            ######                                   
                                           ########,                                 
                                     ,,################,,,,,                         
                               ,,#################################,,                 
                          ,,##########################################,,             
                       ,#########################################, ''#####,          
                    ,#############################################,,   '####,        
                  ,##################################################,,,,####,       
                ,###########''''           ''''###############################       
              ,#####''   ,,,,##########,,,,          '''####'''          '####       
            ,##' ,,,,###########################,,,                        '##       
           ' ,,###''''                  '''############,,,                           
         ,,##''                                '''############,,,,        ,,,,,,###''
      ,#''                                            '''#######################'''  
     '                                                          ''''####''''         
             ,#######,   #######,   ,#######,      ##                                
            ,#'     '#,  ##    ##  ,#'     '#,    #''#        ######   ,####,        
            ##       ##  ##   ,#'  ##            #'  '#       #        #'  '#        
            ##       ##  #######   ##           ,######,      #####,   #    #        
            '#,     ,#'  ##    ##  '#,     ,#' ,#      #,         ##   #,  ,#        
             '#######'   ##     ##  '#######'  #'      '#     #####' # '####'        



                  #######################################################
                  #                        -***-                        #
                  #          Department of theory and spectroscopy      #
                  #    Directorship and core code : Frank Neese         #
                  #        Max Planck Institute fuer Kohlenforschung    #
                  #                Kaiser Wilhelm Platz 1               #
                  #                 D-45470 Muelheim/Ruhr               #
                  #                      Germany                        #
                  #                                                     #
                  #                  All rights reserved                #
                  #                        -***-                        #
                  #######################################################


                         Program Version 5.0.2 -  RELEASE  -


 With contributions from (in alphabetic order):
   Daniel Aravena         : Magnetic Suceptibility
   Michael Atanasov       : Ab Initio Ligand Field Theory (pilot matlab implementation)
   Alexander A. Auer      : GIAO ZORA, VPT2 properties, NMR spectrum
   Ute Becker             : Parallelization
   Giovanni Bistoni       : ED, misc. LED, open-shell LED, HFLD
   Martin Brehm           : Molecular dynamics
   Dmytro Bykov           : SCF Hessian
   Vijay G. Chilkuri      : MRCI spin determinant printing, contributions to CSF-ICE
   Dipayan Datta          : RHF DLPNO-CCSD density
   Achintya Kumar Dutta   : EOM-CC, STEOM-CC
   Dmitry Ganyushin       : Spin-Orbit,Spin-Spin,Magnetic field MRCI
   Miquel Garcia          : C-PCM and meta-GGA Hessian, CC/C-PCM, Gaussian charge scheme
   Yang Guo               : DLPNO-NEVPT2, F12-NEVPT2, CIM, IAO-localization
   Andreas Hansen         : Spin unrestricted coupled pair/coupled cluster methods
   Benjamin Helmich-Paris : MC-RPA, TRAH-SCF, COSX integrals
   Lee Huntington         : MR-EOM, pCC
   Robert Izsak           : Overlap fitted RIJCOSX, COSX-SCS-MP3, EOM
   Marcus Kettner         : VPT2
   Christian Kollmar      : KDIIS, OOCD, Brueckner-CCSD(T), CCSD density, CASPT2, CASPT2-K
   Simone Kossmann        : Meta GGA functionals, TD-DFT gradient, OOMP2, MP2 Hessian
   Martin Krupicka        : Initial AUTO-CI
   Lucas Lang             : DCDCAS
   Marvin Lechner         : AUTO-CI (C++ implementation), FIC-MRCC
   Dagmar Lenk            : GEPOL surface, SMD
   Dimitrios Liakos       : Extrapolation schemes; Compound Job, initial MDCI parallelization
   Dimitrios Manganas     : Further ROCIS development; embedding schemes
   Dimitrios Pantazis     : SARC Basis sets
   Anastasios Papadopoulos: AUTO-CI, single reference methods and gradients
   Taras Petrenko         : DFT Hessian,TD-DFT gradient, ASA, ECA, R-Raman, ABS, FL, XAS/XES, NRVS
   Peter Pinski           : DLPNO-MP2, DLPNO-MP2 Gradient
   Christoph Reimann      : Effective Core Potentials
   Marius Retegan         : Local ZFS, SOC
   Christoph Riplinger    : Optimizer, TS searches, QM/MM, DLPNO-CCSD(T), (RO)-DLPNO pert. Triples
   Tobias Risthaus        : Range-separated hybrids, TD-DFT gradient, RPA, STAB
   Michael Roemelt        : Original ROCIS implementation
   Masaaki Saitow         : Open-shell DLPNO-CCSD energy and density
   Barbara Sandhoefer     : DKH picture change effects
   Avijit Sen             : IP-ROCIS
   Kantharuban Sivalingam : CASSCF convergence, NEVPT2, FIC-MRCI
   Bernardo de Souza      : ESD, SOC TD-DFT
   Georgi Stoychev        : AutoAux, RI-MP2 NMR, DLPNO-MP2 response
   Willem Van den Heuvel  : Paramagnetic NMR
   Boris Wezisla          : Elementary symmetry handling
   Frank Wennmohs         : Technical directorship


 We gratefully acknowledge several colleagues who have allowed us to
 interface, adapt or use parts of their codes:
   Stefan Grimme, W. Hujo, H. Kruse, P. Pracht,  : VdW corrections, initial TS optimization,
                  C. Bannwarth, S. Ehlert          DFT functionals, gCP, sTDA/sTD-DF
   Ed Valeev, F. Pavosevic, A. Kumar             : LibInt (2-el integral package), F12 methods
   Garnet Chan, S. Sharma, J. Yang, R. Olivares  : DMRG
   Ulf Ekstrom                                   : XCFun DFT Library
   Mihaly Kallay                                 : mrcc  (arbitrary order and MRCC methods)
   Jiri Pittner, Ondrej Demel                    : Mk-CCSD
   Frank Weinhold                                : gennbo (NPA and NBO analysis)
   Christopher J. Cramer and Donald G. Truhlar   : smd solvation model
   Lars Goerigk                                  : TD-DFT with DH, B97 family of functionals
   V. Asgeirsson, H. Jonsson                     : NEB implementation
   FAccTs GmbH                                   : IRC, NEB, NEB-TS, DLPNO-Multilevel, CI-OPT
                                                   MM, QMMM, 2- and 3-layer-ONIOM, Crystal-QMMM,
                                                   LR-CPCM, SF, NACMEs, symmetry and pop. for TD-DFT,
                                                   nearIR, NL-DFT gradient (VV10), updates on ESD,
                                                   ML-optimized integration grids
   S Lehtola, MJT Oliveira, MAL Marques          : LibXC Library
   Liviu Ungur et al                             : ANISO software


 Your calculation uses the libint2 library for the computation of 2-el integrals
 For citations please refer to: http://libint.valeyev.net

 Your ORCA version has been built with support for libXC version: 5.1.0
 For citations please refer to: https://tddft.org/programs/libxc/

 This ORCA versions uses:
   CBLAS   interface :  Fast vector & matrix operations
   LAPACKE interface :  Fast linear algebra routines
   SCALAPACK package :  Parallel linear algebra routines
   Shared memory     :  Shared parallel matrices
   BLAS/LAPACK       :  OpenBLAS 0.3.15  USE64BITINT DYNAMIC_ARCH NO_AFFINITY SkylakeX SINGLE_THREADED
        Core in use  :  SkylakeX
   Copyright (c) 2011-2014, The OpenBLAS Project


Your calculation utilizes the atom-pairwise dispersion correction
with the Becke-Johnson damping scheme (D3BJ)
Cite in your paper:
S.Grimme, S.Ehrlich, L.Goerigk, J Comput Chem, (2011), 32, 1456–1465 
S.Grimme, J.Antony, S.Ehrlich and H.Krieg, J.Chem.Phys., 132, (2010), 154104 
   

================================================================================

----- Orbital basis set information -----
Your calculation utilizes the basis: def2-TZVP
   F. Weigend and R. Ahlrichs, Phys. Chem. Chem. Phys. 7, 3297 (2005).

----- AuxJ basis set information -----
Your calculation utilizes the auxiliary basis: def2/J
   F. Weigend, Phys. Chem. Chem. Phys. 8, 1057 (2006).

================================================================================
                                        WARNINGS
                       Please study these warnings very carefully!
================================================================================


INFO   : the flag for use of the SHARK integral package has been found!

================================================================================
                                       INPUT FILE
================================================================================
NAME = ox_gs_B_orca0007.inp
|  1> ! engrad PBE0 D3BJ def2-TZVP  
|  2> %pal nprocs 8 end
|  3> %maxcore 3000
|  4>  
|  5> *xyz 0 1 
|  6> O   -0.19539342123534373 0.8774600415727762 0.11828855200956377
|  7> C   -0.7040824436876203 -0.40719074666675237 -0.023701044506284255
|  8> C   0.7260547541754535 -0.37913062709464707 -0.04024168620833519
|  9> H   -1.3700039424546464 -0.6849459320216623 0.8756402523757311
| 10> H   -1.2471128734550496 -0.6414317187548625 -0.95716773839681
| 11> H   1.247812625887956 -0.7140808030633271 -0.962959634999087
| 12> H   1.2751221443366878 -0.6368320186730853 0.9293008874386537
| 13> *
| 14> 
| 15>                          ****END OF INPUT****
================================================================================

                     *******************************
                     * Energy+Gradient Calculation *
                     *******************************

---------------------------------
CARTESIAN COORDINATES (ANGSTROEM)
---------------------------------
  O     -0.195393    0.877460    0.118289
  C     -0.704082   -0.407191   -0.023701
  C      0.726055   -0.379131   -0.040242
  H     -1.370004   -0.684946    0.875640
  H     -1.247113   -0.641432   -0.957168
  H      1.247813   -0.714081   -0.962960
  H      1.275122   -0.636832    0.929301

----------------------------
CARTESIAN COORDINATES (A.U.)
----------------------------
  NO LB      ZA    FRAG     MASS         X           Y           Z
   0 O     8.0000    0    15.999   -0.369240    1.658159    0.223533
   1 C     6.0000    0    12.011   -1.330523   -0.769479   -0.044788
   2 C     6.0000    0    12.011    1.372045   -0.716453   -0.076046
   3 H     1.0000    0     1.008   -2.588932   -1.294360    1.654720
   4 H     1.0000    0     1.008   -2.356702   -1.212130   -1.808785
   5 H     1.0000    0     1.008    2.358024   -1.349417   -1.819730
   6 H     1.0000    0     1.008    2.409632   -1.203438    1.756124

--------------------------------
INTERNAL COORDINATES (ANGSTROEM)
--------------------------------
 O      0   0   0     0.000000000000     0.00000000     0.00000000
 C      1   0   0     1.388975599068     0.00000000     0.00000000
 C      2   1   0     1.430508080316    67.47425962     0.00000000
 H      2   1   3     1.153002234945   110.76813596   121.81419939
 H      2   1   3     1.105038890384   117.54078672   247.86992579
 H      3   2   1     1.111679499719   118.22319426   242.73867554
 H      3   2   1     1.143633598787   117.75945920    98.75010702

---------------------------
INTERNAL COORDINATES (A.U.)
---------------------------
 O      0   0   0     0.000000000000     0.00000000     0.00000000
 C      1   0   0     2.624783488938     0.00000000     0.00000000
 C      2   1   0     2.703268504159    67.47425962     0.00000000
 H      2   1   3     2.178858455846   110.76813596   121.81419939
 H      2   1   3     2.088220870158   117.54078672   247.86992579
 H      3   2   1     2.100769803164   118.22319426   242.73867554
 H      3   2   1     2.161154299258   117.75945920    98.75010702

---------------------
BASIS SET INFORMATION
---------------------
There are 3 groups of distinct atoms

 Group   1 Type O   : 11s6p2d1f contracted to 5s3p2d1f pattern {62111/411/11/1}
 Group   2 Type C   : 11s6p2d1f contracted to 5s3p2d1f pattern {62111/411/11/1}
 Group   3 Type H   : 5s1p contracted to 3s1p pattern {311/1}

Atom   0O    basis set group =>   1
Atom   1C    basis set group =>   2
Atom   2C    basis set group =>   2
Atom   3H    basis set group =>   3
Atom   4H    basis set group =>   3
Atom   5H    basis set group =>   3
Atom   6H    basis set group =>   3
---------------------------------
AUXILIARY/J BASIS SET INFORMATION
---------------------------------
There are 3 groups of distinct atoms

 Group   1 Type O   : 12s5p4d2f1g contracted to 6s4p3d1f1g pattern {711111/2111/211/2/1}
 Group   2 Type C   : 12s5p4d2f1g contracted to 6s4p3d1f1g pattern {711111/2111/211/2/1}
 Group   3 Type H   : 5s2p1d contracted to 3s1p1d pattern {311/2/1}

Atom   0O    basis set group =>   1
Atom   1C    basis set group =>   2
Atom   2C    basis set group =>   2
Atom   3H    basis set group =>   3
Atom   4H    basis set group =>   3
Atom   5H    basis set group =>   3
Atom   6H    basis set group =>   3


           ************************************************************
           *        Program running with 8 parallel MPI-processes     *
           *              working on a common directory               *
           ************************************************************
------------------------------------------------------------------------------
                           ORCA GTO INTEGRAL CALCULATION
                           -- RI-GTO INTEGRALS CHOSEN --
------------------------------------------------------------------------------
------------------------------------------------------------------------------
                   ___                                                        
                  /   \      - P O W E R E D   B Y -                         
                 /     \                                                     
                 |  |  |   _    _      __       _____    __    __             
                 |  |  |  | |  | |    /  \     |  _  \  |  |  /  |          
                  \  \/   | |  | |   /    \    | | | |  |  | /  /          
                 / \  \   | |__| |  /  /\  \   | |_| |  |  |/  /          
                |  |  |   |  __  | /  /__\  \  |    /   |      \           
                |  |  |   | |  | | |   __   |  |    \   |  |\   \          
                \     /   | |  | | |  |  |  |  | |\  \  |  | \   \       
                 \___/    |_|  |_| |__|  |__|  |_| \__\ |__|  \__/        
                                                                              
                      - O R C A' S   B I G   F R I E N D -                    
                                      &                                       
                       - I N T E G R A L  F E E D E R -                       
                                                                              
 v1 FN, 2020, v2 2021                                                         
------------------------------------------------------------------------------


Reading SHARK input file ox_gs_B_orca0007.SHARKINP.tmp ... ok
----------------------
SHARK INTEGRAL PACKAGE
----------------------

Number of atoms                             ...      7
Number of basis functions                   ...    117
Number of shells                            ...     49
Maximum angular momentum                    ...      3
Integral batch strategy                     ... SHARK/LIBINT Hybrid
RI-J (if used) integral strategy            ... SPLIT-RIJ (Revised 2003 algorithm where possible)
Printlevel                                  ...      1
Contraction scheme used                     ... SEGMENTED contraction
Coulomb Range Separation                    ... NOT USED
Exchange Range Separation                   ... NOT USED
Finite Nucleus Model                        ... NOT USED
Auxiliary Coulomb fitting basis             ... AVAILABLE
   # of basis functions in Aux-J            ...    191
   # of shells in Aux-J                     ...     65
   Maximum angular momentum in Aux-J        ...      4
Auxiliary J/K fitting basis                 ... NOT available
Auxiliary Correlation fitting basis         ... NOT available
Auxiliary 'external' fitting basis          ... NOT available
Integral threshold                          ...     2.500000e-11
Primitive cut-off                           ...     2.500000e-12
Primitive pair pre-selection threshold      ...     2.500000e-12

Calculating pre-screening integrals         ... done (  0.0 sec) Dimension = 49
Organizing shell pair data                  ... done (  0.0 sec)
Shell pair information
Total number of shell pairs                 ...      1225
Shell pairs after pre-screening             ...      1220
Total number of primitive shell pairs       ...      3648
Primitive shell pairs kept                  ...      3143
          la=0 lb=0:    373 shell pairs
          la=1 lb=0:    351 shell pairs
          la=1 lb=1:     91 shell pairs
          la=2 lb=0:    162 shell pairs
          la=2 lb=1:     78 shell pairs
          la=2 lb=2:     21 shell pairs
          la=3 lb=0:     81 shell pairs
          la=3 lb=1:     39 shell pairs
          la=3 lb=2:     18 shell pairs
          la=3 lb=3:      6 shell pairs

Calculating one electron integrals          ... done (  0.0 sec)
Calculating RI/J V-Matrix + Cholesky decomp.... done (  0.0 sec)
Calculating Nuclear repulsion               ... done (  0.0 sec) ENN=     73.739308125356 Eh

SHARK setup successfully completed in   0.1 seconds

Maximum memory used throughout the entire GTOINT-calculation: 14.9 MB


           ************************************************************
           *        Program running with 8 parallel MPI-processes     *
           *              working on a common directory               *
           ************************************************************
-------------------------------------------------------------------------------
                                 ORCA SCF
-------------------------------------------------------------------------------

------------
SCF SETTINGS
------------
Hamiltonian:
 Density Functional     Method          .... DFT(GTOs)
 Exchange Functional    Exchange        .... PBE
   PBE kappa parameter   XKappa         ....  0.804000
   PBE mue parameter    XMuePBE         ....  0.219520
 Correlation Functional Correlation     .... PBE
   PBE beta parameter  CBetaPBE         ....  0.066725
 LDA part of GGA corr.  LDAOpt          .... PW91-LDA
 Gradients option       PostSCFGGA      .... off
 Hybrid DFT is turned on
   Fraction HF Exchange ScalHFX         ....  0.250000
   Scaling of DF-GGA-X  ScalDFX         ....  0.750000
   Scaling of DF-GGA-C  ScalDFC         ....  1.000000
   Scaling of DF-LDA-C  ScalLDAC        ....  1.000000
   Perturbative correction              ....  0.000000
   Density functional embedding theory  .... OFF
   NL short-range parameter             ....  6.900000
 RI-approximation to the Coulomb term is turned on
   Number of AuxJ basis functions       .... 191
   RIJ-COSX (HFX calculated with COS-X)).... on


General Settings:
 Integral files         IntName         .... ox_gs_B_orca0007
 Hartree-Fock type      HFTyp           .... RHF
 Total Charge           Charge          ....    0
 Multiplicity           Mult            ....    1
 Number of Electrons    NEL             ....   24
 Basis Dimension        Dim             ....  117
 Nuclear Repulsion      ENuc            ....     73.7393081254 Eh

Convergence Acceleration:
 DIIS                   CNVDIIS         .... on
   Start iteration      DIISMaxIt       ....    12
   Startup error        DIISStart       ....  0.200000
   # of expansion vecs  DIISMaxEq       ....     5
   Bias factor          DIISBfac        ....   1.050
   Max. coefficient     DIISMaxC        ....  10.000
 Trust-Rad. Augm. Hess. CNVTRAH         .... auto
   Auto Start mean grad. ratio tolernc. ....  1.125000
   Auto Start start iteration           ....    20
   Auto Start num. interpolation iter.  ....    10
   Max. Number of Micro iterations      ....    16
   Max. Number of Macro iterations      .... Maxiter - #DIIS iter
   Number of Davidson start vectors     ....     2
   Converg. threshold I  (grad. norm)   ....   1.000e-05
   Converg. threshold II (energy diff.) ....   1.000e-08
   Grad. Scal. Fac. for Micro threshold ....   0.100
   Minimum threshold for Micro iter.    ....   0.010
   NR start threshold (gradient norm)   ....   0.001
   Initial trust radius                 ....   0.400
   Minimum AH scaling param. (alpha)    ....   1.000
   Maximum AH scaling param. (alpha)    .... 1000.000
   Orbital update algorithm             .... Taylor
   White noise on init. David. guess    .... on
   Maximum white noise                  ....   0.010
   Quad. conv. algorithm                .... NR
 SOSCF                  CNVSOSCF        .... on
   Start iteration      SOSCFMaxIt      ....   150
   Startup grad/error   SOSCFStart      ....  0.003300
 Level Shifting         CNVShift        .... on
   Level shift para.    LevelShift      ....    0.2500
   Turn off err/grad.   ShiftErr        ....    0.0010
 Zerner damping         CNVZerner       .... off
 Static damping         CNVDamp         .... on
   Fraction old density DampFac         ....    0.7000
   Max. Damping (<1)    DampMax         ....    0.9800
   Min. Damping (>=0)   DampMin         ....    0.0000
   Turn off err/grad.   DampErr         ....    0.1000
 Fernandez-Rico         CNVRico         .... off

SCF Procedure:
 Maximum # iterations   MaxIter         ....   125
 SCF integral mode      SCFMode         .... Direct
   Integral package                     .... SHARK and LIBINT hybrid scheme
 Reset frequency        DirectResetFreq ....    20
 Integral Threshold     Thresh          ....  2.500e-11 Eh
 Primitive CutOff       TCut            ....  2.500e-12 Eh

Convergence Tolerance:
 Convergence Check Mode ConvCheckMode   .... Total+1el-Energy
 Convergence forced     ConvForced      .... 0
 Energy Change          TolE            ....  1.000e-08 Eh
 1-El. energy change                    ....  1.000e-05 Eh
 Orbital Gradient       TolG            ....  1.000e-05
 Orbital Rotation angle TolX            ....  1.000e-05
 DIIS Error             TolErr          ....  5.000e-07


Diagonalization of the overlap matrix:
Smallest eigenvalue                        ... 3.199e-04
Time for diagonalization                   ...    0.001 sec
Threshold for overlap eigenvalues          ... 1.000e-08
Number of eigenvalues below threshold      ... 0
Time for construction of square roots      ...    0.001 sec
Total time needed                          ...    0.003 sec

Time for model grid setup =    0.022 sec

------------------------------
INITIAL GUESS: MODEL POTENTIAL
------------------------------
Loading Hartree-Fock densities                     ... done
Calculating cut-offs                               ... done
Initializing the effective Hamiltonian             ... done
Setting up the integral package (SHARK)            ... done
Starting the Coulomb interaction                   ... done (   0.0 sec)
Reading the grid                                   ... done
Mapping shells                                     ... done
Starting the XC term evaluation                    ... done (   0.0 sec)
  promolecular density results
     # of electrons  =     23.997072478
     EX              =    -19.504683953
     EC              =     -0.777136457
     EX+EC           =    -20.281820410
Transforming the Hamiltonian                       ... done (   0.0 sec)
Diagonalizing the Hamiltonian                      ... done (   0.0 sec)
Back transforming the eigenvectors                 ... done (   0.0 sec)
Now organizing SCF variables                       ... done
                      ------------------
                      INITIAL GUESS DONE (   0.0 sec)
                      ------------------
-------------------
DFT GRID GENERATION
-------------------

General Integration Accuracy     IntAcc      ... 4.388
Radial Grid Type                 RadialGrid  ... OptM3 with GC (2021)
Angular Grid (max. ang.)         AngularGrid ... 4 (Lebedev-302)
Angular grid pruning method      GridPruning ... 4 (adaptive)
Weight generation scheme         WeightScheme... Becke
Basis function cutoff            BFCut       ... 1.0000e-11
Integration weight cutoff        WCut        ... 1.0000e-14
Angular grids for H and He will be reduced by one unit
Partially contracted basis set               ... off
Rotationally invariant grid construction     ... off

Total number of grid points                  ...    31316
Total number of batches                      ...      494
Average number of points per batch           ...       63
Average number of grid points per atom       ...     4474
Time for grid setup =    0.110 sec

--------------------
COSX GRID GENERATION
--------------------

GRIDX 1
-------
General Integration Accuracy     IntAcc      ... 3.816
Radial Grid Type                 RadialGrid  ... OptM3 with GC (2021)
Angular Grid (max. ang.)         AngularGrid ... 1 (Lebedev-50)
Angular grid pruning method      GridPruning ... 4 (adaptive)
Weight generation scheme         WeightScheme... Becke
Basis function cutoff            BFCut       ... 1.0000e-11
Integration weight cutoff        WCut        ... 1.0000e-14
Angular grids for H and He will be reduced by one unit
Partially contracted basis set               ... on
Rotationally invariant grid construction     ... off

Total number of grid points                  ...     4035
Total number of batches                      ...       68
Average number of points per batch           ...       59
Average number of grid points per atom       ...      576
UseSFitting                                  ... on

GRIDX 2
-------
General Integration Accuracy     IntAcc      ... 4.020
Radial Grid Type                 RadialGrid  ... OptM3 with GC (2021)
Angular Grid (max. ang.)         AngularGrid ... 2 (Lebedev-110)
Angular grid pruning method      GridPruning ... 4 (adaptive)
Weight generation scheme         WeightScheme... Becke
Basis function cutoff            BFCut       ... 1.0000e-11
Integration weight cutoff        WCut        ... 1.0000e-14
Angular grids for H and He will be reduced by one unit
Partially contracted basis set               ... on
Rotationally invariant grid construction     ... off

Total number of grid points                  ...     8731
Total number of batches                      ...      140
Average number of points per batch           ...       62
Average number of grid points per atom       ...     1247
UseSFitting                                  ... on

GRIDX 3
-------
General Integration Accuracy     IntAcc      ... 4.338
Radial Grid Type                 RadialGrid  ... OptM3 with GC (2021)
Angular Grid (max. ang.)         AngularGrid ... 3 (Lebedev-194)
Angular grid pruning method      GridPruning ... 4 (adaptive)
Weight generation scheme         WeightScheme... Becke
Basis function cutoff            BFCut       ... 1.0000e-11
Integration weight cutoff        WCut        ... 1.0000e-14
Angular grids for H and He will be reduced by one unit
Partially contracted basis set               ... on
Rotationally invariant grid construction     ... off

Total number of grid points                  ...    19267
Total number of batches                      ...      305
Average number of points per batch           ...       63
Average number of grid points per atom       ...     2752
UseSFitting                                  ... on

Time for X-Grid setup             =    0.073 sec

--------------
SCF ITERATIONS
--------------
ITER       Energy         Delta-E        Max-DP      RMS-DP      [F,P]     Damp
               ***  Starting incremental Fock matrix formation  ***
  0   -153.5882539471   0.000000000000 0.03327447  0.00115905  0.1769358 0.7000
  1   -153.6173141760  -0.029060228893 0.01739422  0.00083764  0.0696611 0.7000
                               ***Turning on DIIS***
  2   -153.6285330533  -0.011218877292 0.02524844  0.00137128  0.0308173 0.0000
  3   -153.6470438770  -0.018510823649 0.01346867  0.00064006  0.0391979 0.0000
  4   -153.6507020072  -0.003658130211 0.00423971  0.00018157  0.0104356 0.0000
  5   -153.6509351143  -0.000233107139 0.00141486  0.00006179  0.0039879 0.0000
                      *** Initiating the SOSCF procedure ***
                           *** Shutting down DIIS ***
                      *** Re-Reading the Fockian *** 
                      *** Removing any level shift *** 
ITER      Energy       Delta-E        Grad      Rot      Max-DP    RMS-DP
  6   -153.65096115  -0.0000260398  0.000155  0.000155  0.000903  0.000030
               *** Restarting incremental Fock matrix formation ***
  7   -153.65096305  -0.0000018966  0.000075  0.000206  0.000162  0.000007
  8   -153.65096294   0.0000001144  0.000137  0.000140  0.000102  0.000004
  9   -153.65096314  -0.0000002053  0.000016  0.000026  0.000041  0.000001
 10   -153.65096314   0.0000000061  0.000023  0.000015  0.000025  0.000001
                  ***Gradient check signals convergence***
              ***Rediagonalizing the Fockian in SOSCF/NRSCF***

               *****************************************************
               *                     SUCCESS                       *
               *           SCF CONVERGED AFTER  11 CYCLES          *
               *****************************************************

Old exchange energy                            =     -4.975382028 Eh
New exchange energy                            =     -4.975394324 Eh
Exchange energy change after final integration =     -0.000012296 Eh
Total energy after final integration           =   -153.650975443 Eh
Final COS-X integration done in                =     0.249 sec

----------------
TOTAL SCF ENERGY
----------------

Total Energy       :         -153.65097544 Eh           -4181.05560 eV

Components:
Nuclear Repulsion  :           73.73930813 Eh            2006.54859 eV
Electronic Energy  :         -227.39028357 Eh           -6187.60419 eV
One Electron Energy:         -354.22435050 Eh           -9638.93461 eV
Two Electron Energy:          126.83406693 Eh            3451.33042 eV
Max COSX asymmetry :            0.00000093 Eh               0.00003 eV

Virial components:
Potential Energy   :         -306.37211077 Eh           -8336.80897 eV
Kinetic Energy     :          152.72113532 Eh            4155.75337 eV
Virial Ratio       :            2.00608848


DFT components:
N(Alpha)           :       11.999999909915 electrons
N(Beta)            :       11.999999909915 electrons
N(Total)           :       23.999999819829 electrons
E(X)               :      -14.906966893586 Eh       
E(C)               :       -0.785966387782 Eh       
E(XC)              :      -15.692933281367 Eh       
DFET-embed. en.    :        0.000000000000 Eh       

---------------
SCF CONVERGENCE
---------------

  Last Energy change         ...   -1.1473e-08  Tolerance :   1.0000e-08
  Last MAX-Density change    ...    5.5511e-16  Tolerance :   1.0000e-07
  Last RMS-Density change    ...    1.9263e-17  Tolerance :   5.0000e-09
  Last Orbital Gradient      ...    6.1109e-07  Tolerance :   1.0000e-05
  Last Orbital Rotation      ...    8.3067e-07  Tolerance :   1.0000e-05

             **** THE GBW FILE WAS UPDATED (ox_gs_B_orca0007.gbw) ****
             **** DENSITY ox_gs_B_orca0007.scfp WAS UPDATED ****
             **** ENERGY FILE WAS UPDATED (ox_gs_B_orca0007.en.tmp) ****
             **** THE GBW FILE WAS UPDATED (ox_gs_B_orca0007.gbw) ****
             **** DENSITY ox_gs_B_orca0007.scfp WAS UPDATED ****
----------------
ORBITAL ENERGIES
----------------

  NO   OCC          E(Eh)            E(eV) 
   0   2.0000     -19.228385      -523.2309 
   1   2.0000     -10.292603      -280.0760 
   2   2.0000     -10.278020      -279.6792 
   3   2.0000      -1.087682       -29.5973 
   4   2.0000      -0.717659       -19.5285 
   5   2.0000      -0.635755       -17.2998 
   6   2.0000      -0.517148       -14.0723 
   7   2.0000      -0.500464       -13.6183 
   8   2.0000      -0.410920       -11.1817 
   9   2.0000      -0.380292       -10.3483 
  10   2.0000      -0.339303        -9.2329 
  11   2.0000      -0.287339        -7.8189 
  12   0.0000       0.026330         0.7165 
  13   0.0000       0.061925         1.6851 
  14   0.0000       0.080602         2.1933 
  15   0.0000       0.089048         2.4231 
  16   0.0000       0.108212         2.9446 
  17   0.0000       0.151636         4.1262 
  18   0.0000       0.187550         5.1035 
  19   0.0000       0.212250         5.7756 
  20   0.0000       0.258517         7.0346 
  21   0.0000       0.270912         7.3719 
  22   0.0000       0.287058         7.8112 
  23   0.0000       0.320186         8.7127 
  24   0.0000       0.369150        10.0451 
  25   0.0000       0.390659        10.6304 
  26   0.0000       0.403809        10.9882 
  27   0.0000       0.429143        11.6776 
  28   0.0000       0.437056        11.8929 
  29   0.0000       0.466632        12.6977 
  30   0.0000       0.493742        13.4354 
  31   0.0000       0.497633        13.5413 
  32   0.0000       0.530769        14.4430 
  33   0.0000       0.679705        18.4957 
  34   0.0000       0.695737        18.9320 
  35   0.0000       0.747169        20.3315 
  36   0.0000       0.819070        22.2880 
  37   0.0000       0.869453        23.6590 
  38   0.0000       0.885120        24.0853 
  39   0.0000       0.934155        25.4197 
  40   0.0000       0.992832        27.0163 
  41   0.0000       1.043682        28.4000 
  42   0.0000       1.078651        29.3516 
  43   0.0000       1.100889        29.9567 
  44   0.0000       1.157055        31.4851 
  45   0.0000       1.369857        37.2757 
  46   0.0000       1.465841        39.8876 
  47   0.0000       1.491599        40.5885 
  48   0.0000       1.503509        40.9126 
  49   0.0000       1.525738        41.5174 
  50   0.0000       1.574034        42.8316 
  51   0.0000       1.601388        43.5760 
  52   0.0000       1.658456        45.1289 
  53   0.0000       1.667749        45.3818 
  54   0.0000       1.752422        47.6858 
  55   0.0000       1.819050        49.4989 
  56   0.0000       1.835350        49.9424 
  57   0.0000       1.874315        51.0027 
  58   0.0000       1.930428        52.5296 
  59   0.0000       1.964035        53.4441 
  60   0.0000       2.064226        56.1704 
  61   0.0000       2.122529        57.7569 
  62   0.0000       2.146972        58.4221 
  63   0.0000       2.246812        61.1389 
  64   0.0000       2.269591        61.7587 
  65   0.0000       2.376866        64.6778 
  66   0.0000       2.391821        65.0848 
  67   0.0000       2.487587        67.6907 
  68   0.0000       2.512044        68.3562 
  69   0.0000       2.519844        68.5685 
  70   0.0000       2.563281        69.7504 
  71   0.0000       2.609855        71.0178 
  72   0.0000       2.657258        72.3077 
  73   0.0000       2.690647        73.2162 
  74   0.0000       2.707745        73.6815 
  75   0.0000       2.783024        75.7299 
  76   0.0000       2.839655        77.2709 
  77   0.0000       2.941239        80.0352 
  78   0.0000       2.969126        80.7940 
  79   0.0000       3.030425        82.4620 
  80   0.0000       3.072121        83.5967 
  81   0.0000       3.093559        84.1800 
  82   0.0000       3.106026        84.5193 
  83   0.0000       3.203476        87.1710 
  84   0.0000       3.286812        89.4387 
  85   0.0000       3.330156        90.6182 
  86   0.0000       3.341160        90.9176 
  87   0.0000       3.382282        92.0366 
  88   0.0000       3.526011        95.9476 
  89   0.0000       3.595897        97.8493 
  90   0.0000       3.656779        99.5060 
  91   0.0000       3.687581       100.3442 
  92   0.0000       3.899478       106.1102 
  93   0.0000       3.983555       108.3980 
  94   0.0000       4.117560       112.0445 
  95   0.0000       4.128241       112.3352 
  96   0.0000       4.211133       114.5908 
  97   0.0000       4.246091       115.5420 
  98   0.0000       4.336154       117.9928 
  99   0.0000       4.536745       123.4511 
 100   0.0000       4.584583       124.7529 
 101   0.0000       4.836409       131.6054 
 102   0.0000       5.280811       143.6982 
 103   0.0000       5.352484       145.6485 
 104   0.0000       5.549534       151.0105 
 105   0.0000       5.718431       155.6064 
 106   0.0000       5.782964       157.3625 
 107   0.0000       5.805596       157.9783 
 108   0.0000       6.022793       163.8885 
 109   0.0000       6.545017       178.0990 
 110   0.0000       6.568204       178.7299 
 111   0.0000       6.780606       184.5097 
 112   0.0000       6.954073       189.2299 
 113   0.0000       7.150136       194.5651 
 114   0.0000      22.127868       602.1299 
 115   0.0000      22.406903       609.7228 
 116   0.0000      43.800475      1191.8715 

                    ********************************
                    * MULLIKEN POPULATION ANALYSIS *
                    ********************************

-----------------------
MULLIKEN ATOMIC CHARGES
-----------------------
   0 O :   -0.311949
   1 C :   -0.036398
   2 C :   -0.124300
   3 H :    0.107993
   4 H :    0.103285
   5 H :    0.133119
   6 H :    0.128251
Sum of atomic charges:   -0.0000000

--------------------------------
MULLIKEN REDUCED ORBITAL CHARGES
--------------------------------
  0 O s       :     3.874047  s :     3.874047
      pz      :     1.830812  p :     4.397392
      px      :     1.320916
      py      :     1.245664
      dz2     :     0.005180  d :     0.038536
      dxz     :     0.002077
      dyz     :     0.006764
      dx2y2   :     0.010803
      dxy     :     0.013712
      f0      :     0.000242  f :     0.001974
      f+1     :     0.000150
      f-1     :     0.000420
      f+2     :     0.000135
      f-2     :     0.000166
      f+3     :     0.000411
      f-3     :     0.000450
  1 C s       :     3.206300  s :     3.206300
      pz      :     1.045255  p :     2.687311
      px      :     0.910039
      py      :     0.732017
      dz2     :     0.005791  d :     0.130525
      dxz     :     0.027180
      dyz     :     0.038717
      dx2y2   :     0.031942
      dxy     :     0.026894
      f0      :     0.001594  f :     0.012262
      f+1     :     0.001225
      f-1     :     0.000929
      f+2     :     0.002114
      f-2     :     0.001225
      f+3     :     0.001819
      f-3     :     0.003355
  2 C s       :     3.255665  s :     3.255665
      pz      :     1.028062  p :     2.762604
      px      :     0.941318
      py      :     0.793224
      dz2     :     0.008232  d :     0.096433
      dxz     :     0.024731
      dyz     :     0.021363
      dx2y2   :     0.021046
      dxy     :     0.021062
      f0      :     0.001097  f :     0.009598
      f+1     :     0.001226
      f-1     :     0.000567
      f+2     :     0.000951
      f-2     :     0.001343
      f+3     :     0.002042
      f-3     :     0.002372
  3 H s       :     0.873366  s :     0.873366
      pz      :     0.008838  p :     0.018641
      px      :     0.006562
      py      :     0.003240
  4 H s       :     0.876409  s :     0.876409
      pz      :     0.010489  p :     0.020306
      px      :     0.006395
      py      :     0.003421
  5 H s       :     0.845752  s :     0.845752
      pz      :     0.010375  p :     0.021129
      px      :     0.006363
      py      :     0.004391
  6 H s       :     0.851832  s :     0.851832
      pz      :     0.010492  p :     0.019918
      px      :     0.005779
      py      :     0.003647


                     *******************************
                     * LOEWDIN POPULATION ANALYSIS *
                     *******************************

----------------------
LOEWDIN ATOMIC CHARGES
----------------------
   0 O :    0.093635
   1 C :   -0.378470
   2 C :   -0.220573
   3 H :    0.123032
   4 H :    0.115333
   5 H :    0.130482
   6 H :    0.136561

-------------------------------
LOEWDIN REDUCED ORBITAL CHARGES
-------------------------------
  0 O s       :     3.432020  s :     3.432020
      pz      :     1.731015  p :     4.386866
      px      :     1.299306
      py      :     1.356545
      dz2     :     0.011020  d :     0.081778
      dxz     :     0.005562
      dyz     :     0.014501
      dx2y2   :     0.027230
      dxy     :     0.023465
      f0      :     0.000533  f :     0.005701
      f+1     :     0.000216
      f-1     :     0.000868
      f+2     :     0.000375
      f-2     :     0.000627
      f+3     :     0.001229
      f-3     :     0.001853
  1 C s       :     2.822525  s :     2.822525
      pz      :     1.039182  p :     2.909516
      px      :     1.046792
      py      :     0.823542
      dz2     :     0.055562  d :     0.563130
      dxz     :     0.142553
      dyz     :     0.111941
      dx2y2   :     0.132066
      dxy     :     0.121007
      f0      :     0.010441  f :     0.083300
      f+1     :     0.005499
      f-1     :     0.007511
      f+2     :     0.014075
      f-2     :     0.005372
      f+3     :     0.014929
      f-3     :     0.025473
  2 C s       :     2.851127  s :     2.851127
      pz      :     1.049144  p :     2.917194
      px      :     1.071391
      py      :     0.796659
      dz2     :     0.046033  d :     0.398585
      dxz     :     0.125592
      dyz     :     0.060042
      dx2y2   :     0.081792
      dxy     :     0.085126
      f0      :     0.006755  f :     0.053667
      f+1     :     0.004891
      f-1     :     0.004111
      f+2     :     0.005706
      f-2     :     0.005192
      f+3     :     0.012208
      f-3     :     0.014805
  3 H s       :     0.825739  s :     0.825739
      pz      :     0.025953  p :     0.051229
      px      :     0.016293
      py      :     0.008983
  4 H s       :     0.826707  s :     0.826707
      pz      :     0.031406  p :     0.057960
      px      :     0.016589
      py      :     0.009965
  5 H s       :     0.809661  s :     0.809661
      pz      :     0.030796  p :     0.059857
      px      :     0.016591
      py      :     0.012470
  6 H s       :     0.808905  s :     0.808905
      pz      :     0.029892  p :     0.054534
      px      :     0.014358
      py      :     0.010284


                      *****************************
                      * MAYER POPULATION ANALYSIS *
                      *****************************

  NA   - Mulliken gross atomic population
  ZA   - Total nuclear charge
  QA   - Mulliken gross atomic charge
  VA   - Mayer's total valence
  BVA  - Mayer's bonded valence
  FA   - Mayer's free valence

  ATOM       NA         ZA         QA         VA         BVA        FA
  0 O      8.3119     8.0000    -0.3119     2.0020     2.0020     0.0000
  1 C      6.0364     6.0000    -0.0364     3.9820     3.9820    -0.0000
  2 C      6.1243     6.0000    -0.1243     3.9526     3.9526    -0.0000
  3 H      0.8920     1.0000     0.1080     0.9608     0.9608    -0.0000
  4 H      0.8967     1.0000     0.1033     0.9545     0.9545     0.0000
  5 H      0.8669     1.0000     0.1331     0.9565     0.9565    -0.0000
  6 H      0.8717     1.0000     0.1283     0.9612     0.9612    -0.0000

  Mayer bond orders larger than 0.100000
B(  0-O ,  1-C ) :   0.9936 B(  0-O ,  2-C ) :   0.9727 B(  1-C ,  2-C ) :   1.0799 
B(  1-C ,  3-H ) :   0.9489 B(  1-C ,  4-H ) :   0.9461 B(  2-C ,  5-H ) :   0.9368 
B(  2-C ,  6-H ) :   0.9473 

-------
TIMINGS
-------

Total SCF time: 0 days 0 hours 0 min 2 sec 

Total time                  ....       2.689 sec
Sum of individual times     ....       2.331 sec  ( 86.7%)

Fock matrix formation       ....       2.064 sec  ( 76.8%)
  Split-RI-J                ....       0.233 sec  ( 11.3% of F)
  Chain of spheres X        ....       1.379 sec  ( 66.8% of F)
  XC integration            ....       0.389 sec  ( 18.8% of F)
    Basis function eval.    ....       0.104 sec  ( 26.8% of XC)
    Density eval.           ....       0.078 sec  ( 20.2% of XC)
    XC-Functional eval.     ....       0.022 sec  (  5.6% of XC)
    XC-Potential eval.      ....       0.134 sec  ( 34.4% of XC)
Diagonalization             ....       0.016 sec  (  0.6%)
Density matrix formation    ....       0.001 sec  (  0.0%)
Population analysis         ....       0.004 sec  (  0.1%)
Initial guess               ....       0.017 sec  (  0.6%)
Orbital Transformation      ....       0.000 sec  (  0.0%)
Orbital Orthonormalization  ....       0.000 sec  (  0.0%)
DIIS solution               ....       0.013 sec  (  0.5%)
SOSCF solution              ....       0.011 sec  (  0.4%)
Grid generation             ....       0.206 sec  (  7.7%)

Maximum memory used throughout the entire SCF-calculation: 61.1 MB


-------------------------------------------------------------------------------
                          DFT DISPERSION CORRECTION                            
                                                                               
                              DFTD3 V3.1  Rev 1                                
                          USING Becke-Johnson damping                          
-------------------------------------------------------------------------------
The PBE0 functional is recognized
Active option DFTDOPT                   ...         4   

molecular C6(AA) [au] = 351.528837 


            DFT-D V3
 parameters
 s6 scaling factor         :     1.0000 
 a1 scaling factor         :     0.4145 
 s8 scaling factor         :     1.2177 
 a2 scaling factor         :     4.8593 
 ad hoc parameters k1-k3   :    16.0000     1.3333    -4.0000 

 Edisp/kcal,au: -1.504732300604  -0.002397943302 
 E6   /kcal   :  -0.985832621 
 E8   /kcal   :  -0.518899679 
 % E8         :  34.484517875 

-------------------------   ----------------
Dispersion correction           -0.002397943
-------------------------   ----------------


-------------------------   --------------------
FINAL SINGLE POINT ENERGY      -153.653373386330
-------------------------   --------------------



           ************************************************************
           *        Program running with 8 parallel MPI-processes     *
           *              working on a common directory               *
           ************************************************************
------------------------------------------------------------------------------
                         ORCA SCF GRADIENT CALCULATION
------------------------------------------------------------------------------

 ... reading COSX grid (gridx3)
Gradient of the Kohn-Sham DFT energy:
Kohn-Sham wavefunction type      ... RKS
Hartree-Fock exchange scaling    ...    0.250
Number of operators              ...    1
Number of atoms                  ...    7
Basis set dimensions             ...  117
Integral neglect threshold       ... 2.5e-11
Integral primitive cutoff        ... 2.5e-12
SHARK Integral package           ... ON

Nuc. rep. gradient       (SHARK) ... done (  0.0 sec)
HCore & Overlap gradient (SHARK) ... done (  0.0 sec)
RI-J gradient            (SHARK) ... done (  0.1 sec)
COSX-gradient                    ... done (  0.3 sec)
Exchange-correlation gradient    ... done
Dispersion correction            ... done

------------------
CARTESIAN GRADIENT
------------------

   1   O   :   -0.049997306    0.027779879    0.025657818
   2   C   :    0.063674289    0.013955140   -0.025696474
   3   C   :   -0.003792149   -0.003007593   -0.040638252
   4   H   :   -0.026229860    0.002536770    0.022881998
   5   H   :   -0.006236276   -0.004742463   -0.003333293
   6   H   :    0.006967881   -0.024427163   -0.008081023
   7   H   :    0.015536394   -0.012278676    0.029189565

Difference to translation invariance:
           :   -0.0000770254   -0.0001841063   -0.0000196609

Difference to rotation invariance:
           :    0.0001556119   -0.0001132162    0.0002427159

Norm of the cartesian gradient     ...    0.1173003644
RMS gradient                       ...    0.0255970380
MAX gradient                       ...    0.0636742894

-------
TIMINGS
-------

Total SCF gradient time            ...        0.675 sec

One electron gradient       ....       0.009 sec  (  1.4%)
RI-J Coulomb gradient       ....       0.073 sec  ( 10.8%)
COSX gradient               ....       0.300 sec  ( 44.4%)
XC gradient                 ....       0.152 sec  ( 22.6%)

Maximum memory used throughout the entire SCFGRAD-calculation: 35.9 MB

                            ***************************************
                            *     ORCA property calculations      *
                            ***************************************

                                    ---------------------
                                    Active property flags
                                    ---------------------
   (+) Dipole Moment


------------------------------------------------------------------------------
                       ORCA ELECTRIC PROPERTIES CALCULATION
------------------------------------------------------------------------------

Dipole Moment Calculation                       ... on
Quadrupole Moment Calculation                   ... off
Polarizability Calculation                      ... off
GBWName                                         ... ox_gs_B_orca0007.gbw
Electron density                                ... ox_gs_B_orca0007.scfp
The origin for moment calculation is the CENTER OF MASS  = (-0.126851,  0.081301  0.043256)

-------------
DIPOLE MOMENT
-------------
                                X             Y             Z
Electronic contribution:     -0.03525       1.81894       0.08112
Nuclear contribution   :      0.16165      -2.66088      -0.19255
                        -----------------------------------------
Total Dipole Moment    :      0.12640      -0.84194      -0.11143
                        -----------------------------------------
Magnitude (a.u.)       :      0.85863
Magnitude (Debye)      :      2.18247



--------------------
Rotational spectrum 
--------------------
 
Rotational constants in cm-1:     0.860996     0.681909     0.450506 
Rotational constants in MHz : 25812.003365 20443.114568 13505.838168 

 Dipole components along the rotational axes: 
x,y,z [a.u.] :    -0.618146    -0.595893     0.007509 
x,y,z [Debye]:    -1.571201    -1.514639     0.019086 

 

Timings for individual modules:

Sum of individual times         ...        4.027 sec (=   0.067 min)
GTO integral calculation        ...        0.302 sec (=   0.005 min)   7.5 %
SCF iterations                  ...        2.861 sec (=   0.048 min)  71.1 %
SCF Gradient evaluation         ...        0.863 sec (=   0.014 min)  21.4 %
                             ****ORCA TERMINATED NORMALLY****
TOTAL RUN TIME: 0 days 0 hours 0 minutes 4 seconds 375 msec
