
                                 *****************
                                 * O   R   C   A *
                                 *****************

                                            #,                                       
                                            ###                                      
                                            ####                                     
                                            #####                                    
                                            ######                                   
                                           ########,                                 
                                     ,,################,,,,,                         
                               ,,#################################,,                 
                          ,,##########################################,,             
                       ,#########################################, ''#####,          
                    ,#############################################,,   '####,        
                  ,##################################################,,,,####,       
                ,###########''''           ''''###############################       
              ,#####''   ,,,,##########,,,,          '''####'''          '####       
            ,##' ,,,,###########################,,,                        '##       
           ' ,,###''''                  '''############,,,                           
         ,,##''                                '''############,,,,        ,,,,,,###''
      ,#''                                            '''#######################'''  
     '                                                          ''''####''''         
             ,#######,   #######,   ,#######,      ##                                
            ,#'     '#,  ##    ##  ,#'     '#,    #''#        ######   ,####,        
            ##       ##  ##   ,#'  ##            #'  '#       #        #'  '#        
            ##       ##  #######   ##           ,######,      #####,   #    #        
            '#,     ,#'  ##    ##  '#,     ,#' ,#      #,         ##   #,  ,#        
             '#######'   ##     ##  '#######'  #'      '#     #####' # '####'        



                  #######################################################
                  #                        -***-                        #
                  #          Department of theory and spectroscopy      #
                  #    Directorship and core code : Frank Neese         #
                  #        Max Planck Institute fuer Kohlenforschung    #
                  #                Kaiser Wilhelm Platz 1               #
                  #                 D-45470 Muelheim/Ruhr               #
                  #                      Germany                        #
                  #                                                     #
                  #                  All rights reserved                #
                  #                        -***-                        #
                  #######################################################


                         Program Version 5.0.2 -  RELEASE  -


 With contributions from (in alphabetic order):
   Daniel Aravena         : Magnetic Suceptibility
   Michael Atanasov       : Ab Initio Ligand Field Theory (pilot matlab implementation)
   Alexander A. Auer      : GIAO ZORA, VPT2 properties, NMR spectrum
   Ute Becker             : Parallelization
   Giovanni Bistoni       : ED, misc. LED, open-shell LED, HFLD
   Martin Brehm           : Molecular dynamics
   Dmytro Bykov           : SCF Hessian
   Vijay G. Chilkuri      : MRCI spin determinant printing, contributions to CSF-ICE
   Dipayan Datta          : RHF DLPNO-CCSD density
   Achintya Kumar Dutta   : EOM-CC, STEOM-CC
   Dmitry Ganyushin       : Spin-Orbit,Spin-Spin,Magnetic field MRCI
   Miquel Garcia          : C-PCM and meta-GGA Hessian, CC/C-PCM, Gaussian charge scheme
   Yang Guo               : DLPNO-NEVPT2, F12-NEVPT2, CIM, IAO-localization
   Andreas Hansen         : Spin unrestricted coupled pair/coupled cluster methods
   Benjamin Helmich-Paris : MC-RPA, TRAH-SCF, COSX integrals
   Lee Huntington         : MR-EOM, pCC
   Robert Izsak           : Overlap fitted RIJCOSX, COSX-SCS-MP3, EOM
   Marcus Kettner         : VPT2
   Christian Kollmar      : KDIIS, OOCD, Brueckner-CCSD(T), CCSD density, CASPT2, CASPT2-K
   Simone Kossmann        : Meta GGA functionals, TD-DFT gradient, OOMP2, MP2 Hessian
   Martin Krupicka        : Initial AUTO-CI
   Lucas Lang             : DCDCAS
   Marvin Lechner         : AUTO-CI (C++ implementation), FIC-MRCC
   Dagmar Lenk            : GEPOL surface, SMD
   Dimitrios Liakos       : Extrapolation schemes; Compound Job, initial MDCI parallelization
   Dimitrios Manganas     : Further ROCIS development; embedding schemes
   Dimitrios Pantazis     : SARC Basis sets
   Anastasios Papadopoulos: AUTO-CI, single reference methods and gradients
   Taras Petrenko         : DFT Hessian,TD-DFT gradient, ASA, ECA, R-Raman, ABS, FL, XAS/XES, NRVS
   Peter Pinski           : DLPNO-MP2, DLPNO-MP2 Gradient
   Christoph Reimann      : Effective Core Potentials
   Marius Retegan         : Local ZFS, SOC
   Christoph Riplinger    : Optimizer, TS searches, QM/MM, DLPNO-CCSD(T), (RO)-DLPNO pert. Triples
   Tobias Risthaus        : Range-separated hybrids, TD-DFT gradient, RPA, STAB
   Michael Roemelt        : Original ROCIS implementation
   Masaaki Saitow         : Open-shell DLPNO-CCSD energy and density
   Barbara Sandhoefer     : DKH picture change effects
   Avijit Sen             : IP-ROCIS
   Kantharuban Sivalingam : CASSCF convergence, NEVPT2, FIC-MRCI
   Bernardo de Souza      : ESD, SOC TD-DFT
   Georgi Stoychev        : AutoAux, RI-MP2 NMR, DLPNO-MP2 response
   Willem Van den Heuvel  : Paramagnetic NMR
   Boris Wezisla          : Elementary symmetry handling
   Frank Wennmohs         : Technical directorship


 We gratefully acknowledge several colleagues who have allowed us to
 interface, adapt or use parts of their codes:
   Stefan Grimme, W. Hujo, H. Kruse, P. Pracht,  : VdW corrections, initial TS optimization,
                  C. Bannwarth, S. Ehlert          DFT functionals, gCP, sTDA/sTD-DF
   Ed Valeev, F. Pavosevic, A. Kumar             : LibInt (2-el integral package), F12 methods
   Garnet Chan, S. Sharma, J. Yang, R. Olivares  : DMRG
   Ulf Ekstrom                                   : XCFun DFT Library
   Mihaly Kallay                                 : mrcc  (arbitrary order and MRCC methods)
   Jiri Pittner, Ondrej Demel                    : Mk-CCSD
   Frank Weinhold                                : gennbo (NPA and NBO analysis)
   Christopher J. Cramer and Donald G. Truhlar   : smd solvation model
   Lars Goerigk                                  : TD-DFT with DH, B97 family of functionals
   V. Asgeirsson, H. Jonsson                     : NEB implementation
   FAccTs GmbH                                   : IRC, NEB, NEB-TS, DLPNO-Multilevel, CI-OPT
                                                   MM, QMMM, 2- and 3-layer-ONIOM, Crystal-QMMM,
                                                   LR-CPCM, SF, NACMEs, symmetry and pop. for TD-DFT,
                                                   nearIR, NL-DFT gradient (VV10), updates on ESD,
                                                   ML-optimized integration grids
   S Lehtola, MJT Oliveira, MAL Marques          : LibXC Library
   Liviu Ungur et al                             : ANISO software


 Your calculation uses the libint2 library for the computation of 2-el integrals
 For citations please refer to: http://libint.valeyev.net

 Your ORCA version has been built with support for libXC version: 5.1.0
 For citations please refer to: https://tddft.org/programs/libxc/

 This ORCA versions uses:
   CBLAS   interface :  Fast vector & matrix operations
   LAPACKE interface :  Fast linear algebra routines
   SCALAPACK package :  Parallel linear algebra routines
   Shared memory     :  Shared parallel matrices
   BLAS/LAPACK       :  OpenBLAS 0.3.15  USE64BITINT DYNAMIC_ARCH NO_AFFINITY SkylakeX SINGLE_THREADED
        Core in use  :  SkylakeX
   Copyright (c) 2011-2014, The OpenBLAS Project


Your calculation utilizes the atom-pairwise dispersion correction
with the Becke-Johnson damping scheme (D3BJ)
Cite in your paper:
S.Grimme, S.Ehrlich, L.Goerigk, J Comput Chem, (2011), 32, 1456–1465 
S.Grimme, J.Antony, S.Ehrlich and H.Krieg, J.Chem.Phys., 132, (2010), 154104 
   

================================================================================

----- Orbital basis set information -----
Your calculation utilizes the basis: def2-TZVP
   F. Weigend and R. Ahlrichs, Phys. Chem. Chem. Phys. 7, 3297 (2005).

----- AuxJ basis set information -----
Your calculation utilizes the auxiliary basis: def2/J
   F. Weigend, Phys. Chem. Chem. Phys. 8, 1057 (2006).

================================================================================
                                        WARNINGS
                       Please study these warnings very carefully!
================================================================================


INFO   : the flag for use of the SHARK integral package has been found!

================================================================================
                                       INPUT FILE
================================================================================
NAME = ox_gs_A_orca0031.inp
|  1> ! engrad PBE0 D3BJ def2-TZVP  
|  2> %pal nprocs 8 end
|  3> %maxcore 3000
|  4>  
|  5> *xyz 0 1 
|  6> O   0.056328301477387877 0.7534798754722585 -0.05532618543708352
|  7> C   -0.6002215998375069 -0.44405956829927556 0.0006964645956473102
|  8> C   0.7276832856444998 -0.43711625196160725 -0.007218020596197124
|  9> H   -1.2925060303440117 -0.6956137570620196 0.9183385564892
| 10> H   -1.2909940085566882 -0.7039131991338583 -0.9146547086154052
| 11> H   1.2510739591289572 -0.5930712105708655 -1.0525247104196507
| 12> H   1.318398212596123 -0.6059665503751186 0.8163066583795925
| 13> *
| 14> 
| 15>                          ****END OF INPUT****
================================================================================

                     *******************************
                     * Energy+Gradient Calculation *
                     *******************************

---------------------------------
CARTESIAN COORDINATES (ANGSTROEM)
---------------------------------
  O      0.056328    0.753480   -0.055326
  C     -0.600222   -0.444060    0.000696
  C      0.727683   -0.437116   -0.007218
  H     -1.292506   -0.695614    0.918339
  H     -1.290994   -0.703913   -0.914655
  H      1.251074   -0.593071   -1.052525
  H      1.318398   -0.605967    0.816307

----------------------------
CARTESIAN COORDINATES (A.U.)
----------------------------
  NO LB      ZA    FRAG     MASS         X           Y           Z
   0 O     8.0000    0    15.999    0.106445    1.423871   -0.104551
   1 C     6.0000    0    12.011   -1.134254   -0.839151    0.001316
   2 C     6.0000    0    12.011    1.375122   -0.826030   -0.013640
   3 H     1.0000    0     1.008   -2.442482   -1.314519    1.735408
   4 H     1.0000    0     1.008   -2.439625   -1.330203   -1.728447
   5 H     1.0000    0     1.008    2.364187   -1.120742   -1.988983
   6 H     1.0000    0     1.008    2.491412   -1.145111    1.542596

--------------------------------
INTERNAL COORDINATES (ANGSTROEM)
--------------------------------
 O      0   0   0     0.000000000000     0.00000000     0.00000000
 C      1   0   0     1.366856623652     0.00000000     0.00000000
 C      2   1   0     1.327946623025    60.97798071     0.00000000
 H      2   1   3     1.176692080121   120.12304375   117.61657424
 H      2   1   3     1.175822350699   116.35312881   241.93686556
 H      3   2   1     1.179375182881   116.63873501   263.83914981
 H      3   2   1     1.027447052203   124.70005293   104.24131332

---------------------------
INTERNAL COORDINATES (A.U.)
---------------------------
 O      0   0   0     0.000000000000     0.00000000     0.00000000
 C      1   0   0     2.582984683039     0.00000000     0.00000000
 C      2   1   0     2.509455437984    60.97798071     0.00000000
 H      2   1   3     2.223625775384   120.12304375   117.61657424
 H      2   1   3     2.221982224966   116.35312881   241.93686556
 H      3   2   1     2.228696104788   116.63873501   263.83914981
 H      3   2   1     1.941593545768   124.70005293   104.24131332

---------------------
BASIS SET INFORMATION
---------------------
There are 3 groups of distinct atoms

 Group   1 Type O   : 11s6p2d1f contracted to 5s3p2d1f pattern {62111/411/11/1}
 Group   2 Type C   : 11s6p2d1f contracted to 5s3p2d1f pattern {62111/411/11/1}
 Group   3 Type H   : 5s1p contracted to 3s1p pattern {311/1}

Atom   0O    basis set group =>   1
Atom   1C    basis set group =>   2
Atom   2C    basis set group =>   2
Atom   3H    basis set group =>   3
Atom   4H    basis set group =>   3
Atom   5H    basis set group =>   3
Atom   6H    basis set group =>   3
---------------------------------
AUXILIARY/J BASIS SET INFORMATION
---------------------------------
There are 3 groups of distinct atoms

 Group   1 Type O   : 12s5p4d2f1g contracted to 6s4p3d1f1g pattern {711111/2111/211/2/1}
 Group   2 Type C   : 12s5p4d2f1g contracted to 6s4p3d1f1g pattern {711111/2111/211/2/1}
 Group   3 Type H   : 5s2p1d contracted to 3s1p1d pattern {311/2/1}

Atom   0O    basis set group =>   1
Atom   1C    basis set group =>   2
Atom   2C    basis set group =>   2
Atom   3H    basis set group =>   3
Atom   4H    basis set group =>   3
Atom   5H    basis set group =>   3
Atom   6H    basis set group =>   3


           ************************************************************
           *        Program running with 8 parallel MPI-processes     *
           *              working on a common directory               *
           ************************************************************
------------------------------------------------------------------------------
                           ORCA GTO INTEGRAL CALCULATION
                           -- RI-GTO INTEGRALS CHOSEN --
------------------------------------------------------------------------------
------------------------------------------------------------------------------
                   ___                                                        
                  /   \      - P O W E R E D   B Y -                         
                 /     \                                                     
                 |  |  |   _    _      __       _____    __    __             
                 |  |  |  | |  | |    /  \     |  _  \  |  |  /  |          
                  \  \/   | |  | |   /    \    | | | |  |  | /  /          
                 / \  \   | |__| |  /  /\  \   | |_| |  |  |/  /          
                |  |  |   |  __  | /  /__\  \  |    /   |      \           
                |  |  |   | |  | | |   __   |  |    \   |  |\   \          
                \     /   | |  | | |  |  |  |  | |\  \  |  | \   \       
                 \___/    |_|  |_| |__|  |__|  |_| \__\ |__|  \__/        
                                                                              
                      - O R C A' S   B I G   F R I E N D -                    
                                      &                                       
                       - I N T E G R A L  F E E D E R -                       
                                                                              
 v1 FN, 2020, v2 2021                                                         
------------------------------------------------------------------------------


Reading SHARK input file ox_gs_A_orca0031.SHARKINP.tmp ... ok
----------------------
SHARK INTEGRAL PACKAGE
----------------------

Number of atoms                             ...      7
Number of basis functions                   ...    117
Number of shells                            ...     49
Maximum angular momentum                    ...      3
Integral batch strategy                     ... SHARK/LIBINT Hybrid
RI-J (if used) integral strategy            ... SPLIT-RIJ (Revised 2003 algorithm where possible)
Printlevel                                  ...      1
Contraction scheme used                     ... SEGMENTED contraction
Coulomb Range Separation                    ... NOT USED
Exchange Range Separation                   ... NOT USED
Finite Nucleus Model                        ... NOT USED
Auxiliary Coulomb fitting basis             ... AVAILABLE
   # of basis functions in Aux-J            ...    191
   # of shells in Aux-J                     ...     65
   Maximum angular momentum in Aux-J        ...      4
Auxiliary J/K fitting basis                 ... NOT available
Auxiliary Correlation fitting basis         ... NOT available
Auxiliary 'external' fitting basis          ... NOT available
Integral threshold                          ...     2.500000e-11
Primitive cut-off                           ...     2.500000e-12
Primitive pair pre-selection threshold      ...     2.500000e-12

Calculating pre-screening integrals         ... done (  0.0 sec) Dimension = 49
Organizing shell pair data                  ... done (  0.0 sec)
Shell pair information
Total number of shell pairs                 ...      1225
Shell pairs after pre-screening             ...      1222
Total number of primitive shell pairs       ...      3648
Primitive shell pairs kept                  ...      3161
          la=0 lb=0:    375 shell pairs
          la=1 lb=0:    351 shell pairs
          la=1 lb=1:     91 shell pairs
          la=2 lb=0:    162 shell pairs
          la=2 lb=1:     78 shell pairs
          la=2 lb=2:     21 shell pairs
          la=3 lb=0:     81 shell pairs
          la=3 lb=1:     39 shell pairs
          la=3 lb=2:     18 shell pairs
          la=3 lb=3:      6 shell pairs

Calculating one electron integrals          ... done (  0.0 sec)
Calculating RI/J V-Matrix + Cholesky decomp.... done (  0.0 sec)
Calculating Nuclear repulsion               ... done (  0.0 sec) ENN=     77.844775357383 Eh

SHARK setup successfully completed in   0.1 seconds

Maximum memory used throughout the entire GTOINT-calculation: 14.9 MB


           ************************************************************
           *        Program running with 8 parallel MPI-processes     *
           *              working on a common directory               *
           ************************************************************
-------------------------------------------------------------------------------
                                 ORCA SCF
-------------------------------------------------------------------------------

------------
SCF SETTINGS
------------
Hamiltonian:
 Density Functional     Method          .... DFT(GTOs)
 Exchange Functional    Exchange        .... PBE
   PBE kappa parameter   XKappa         ....  0.804000
   PBE mue parameter    XMuePBE         ....  0.219520
 Correlation Functional Correlation     .... PBE
   PBE beta parameter  CBetaPBE         ....  0.066725
 LDA part of GGA corr.  LDAOpt          .... PW91-LDA
 Gradients option       PostSCFGGA      .... off
 Hybrid DFT is turned on
   Fraction HF Exchange ScalHFX         ....  0.250000
   Scaling of DF-GGA-X  ScalDFX         ....  0.750000
   Scaling of DF-GGA-C  ScalDFC         ....  1.000000
   Scaling of DF-LDA-C  ScalLDAC        ....  1.000000
   Perturbative correction              ....  0.000000
   Density functional embedding theory  .... OFF
   NL short-range parameter             ....  6.900000
 RI-approximation to the Coulomb term is turned on
   Number of AuxJ basis functions       .... 191
   RIJ-COSX (HFX calculated with COS-X)).... on


General Settings:
 Integral files         IntName         .... ox_gs_A_orca0031
 Hartree-Fock type      HFTyp           .... RHF
 Total Charge           Charge          ....    0
 Multiplicity           Mult            ....    1
 Number of Electrons    NEL             ....   24
 Basis Dimension        Dim             ....  117
 Nuclear Repulsion      ENuc            ....     77.8447753574 Eh

Convergence Acceleration:
 DIIS                   CNVDIIS         .... on
   Start iteration      DIISMaxIt       ....    12
   Startup error        DIISStart       ....  0.200000
   # of expansion vecs  DIISMaxEq       ....     5
   Bias factor          DIISBfac        ....   1.050
   Max. coefficient     DIISMaxC        ....  10.000
 Trust-Rad. Augm. Hess. CNVTRAH         .... auto
   Auto Start mean grad. ratio tolernc. ....  1.125000
   Auto Start start iteration           ....    20
   Auto Start num. interpolation iter.  ....    10
   Max. Number of Micro iterations      ....    16
   Max. Number of Macro iterations      .... Maxiter - #DIIS iter
   Number of Davidson start vectors     ....     2
   Converg. threshold I  (grad. norm)   ....   1.000e-05
   Converg. threshold II (energy diff.) ....   1.000e-08
   Grad. Scal. Fac. for Micro threshold ....   0.100
   Minimum threshold for Micro iter.    ....   0.010
   NR start threshold (gradient norm)   ....   0.001
   Initial trust radius                 ....   0.400
   Minimum AH scaling param. (alpha)    ....   1.000
   Maximum AH scaling param. (alpha)    .... 1000.000
   Orbital update algorithm             .... Taylor
   White noise on init. David. guess    .... on
   Maximum white noise                  ....   0.010
   Quad. conv. algorithm                .... NR
 SOSCF                  CNVSOSCF        .... on
   Start iteration      SOSCFMaxIt      ....   150
   Startup grad/error   SOSCFStart      ....  0.003300
 Level Shifting         CNVShift        .... on
   Level shift para.    LevelShift      ....    0.2500
   Turn off err/grad.   ShiftErr        ....    0.0010
 Zerner damping         CNVZerner       .... off
 Static damping         CNVDamp         .... on
   Fraction old density DampFac         ....    0.7000
   Max. Damping (<1)    DampMax         ....    0.9800
   Min. Damping (>=0)   DampMin         ....    0.0000
   Turn off err/grad.   DampErr         ....    0.1000
 Fernandez-Rico         CNVRico         .... off

SCF Procedure:
 Maximum # iterations   MaxIter         ....   125
 SCF integral mode      SCFMode         .... Direct
   Integral package                     .... SHARK and LIBINT hybrid scheme
 Reset frequency        DirectResetFreq ....    20
 Integral Threshold     Thresh          ....  2.500e-11 Eh
 Primitive CutOff       TCut            ....  2.500e-12 Eh

Convergence Tolerance:
 Convergence Check Mode ConvCheckMode   .... Total+1el-Energy
 Convergence forced     ConvForced      .... 0
 Energy Change          TolE            ....  1.000e-08 Eh
 1-El. energy change                    ....  1.000e-05 Eh
 Orbital Gradient       TolG            ....  1.000e-05
 Orbital Rotation angle TolX            ....  1.000e-05
 DIIS Error             TolErr          ....  5.000e-07


Diagonalization of the overlap matrix:
Smallest eigenvalue                        ... 1.557e-04
Time for diagonalization                   ...    0.001 sec
Threshold for overlap eigenvalues          ... 1.000e-08
Number of eigenvalues below threshold      ... 0
Time for construction of square roots      ...    0.001 sec
Total time needed                          ...    0.003 sec

Time for model grid setup =    0.024 sec

------------------------------
INITIAL GUESS: MODEL POTENTIAL
------------------------------
Loading Hartree-Fock densities                     ... done
Calculating cut-offs                               ... done
Initializing the effective Hamiltonian             ... done
Setting up the integral package (SHARK)            ... done
Starting the Coulomb interaction                   ... done (   0.0 sec)
Reading the grid                                   ... done
Mapping shells                                     ... done
Starting the XC term evaluation                    ... done (   0.0 sec)
  promolecular density results
     # of electrons  =     23.997211467
     EX              =    -19.585820498
     EC              =     -0.787523807
     EX+EC           =    -20.373344305
Transforming the Hamiltonian                       ... done (   0.0 sec)
Diagonalizing the Hamiltonian                      ... done (   0.0 sec)
Back transforming the eigenvectors                 ... done (   0.0 sec)
Now organizing SCF variables                       ... done
                      ------------------
                      INITIAL GUESS DONE (   0.0 sec)
                      ------------------
-------------------
DFT GRID GENERATION
-------------------

General Integration Accuracy     IntAcc      ... 4.388
Radial Grid Type                 RadialGrid  ... OptM3 with GC (2021)
Angular Grid (max. ang.)         AngularGrid ... 4 (Lebedev-302)
Angular grid pruning method      GridPruning ... 4 (adaptive)
Weight generation scheme         WeightScheme... Becke
Basis function cutoff            BFCut       ... 1.0000e-11
Integration weight cutoff        WCut        ... 1.0000e-14
Angular grids for H and He will be reduced by one unit
Partially contracted basis set               ... off
Rotationally invariant grid construction     ... off

Total number of grid points                  ...    31307
Total number of batches                      ...      493
Average number of points per batch           ...       63
Average number of grid points per atom       ...     4472
Time for grid setup =    0.120 sec

--------------------
COSX GRID GENERATION
--------------------

GRIDX 1
-------
General Integration Accuracy     IntAcc      ... 3.816
Radial Grid Type                 RadialGrid  ... OptM3 with GC (2021)
Angular Grid (max. ang.)         AngularGrid ... 1 (Lebedev-50)
Angular grid pruning method      GridPruning ... 4 (adaptive)
Weight generation scheme         WeightScheme... Becke
Basis function cutoff            BFCut       ... 1.0000e-11
Integration weight cutoff        WCut        ... 1.0000e-14
Angular grids for H and He will be reduced by one unit
Partially contracted basis set               ... on
Rotationally invariant grid construction     ... off

Total number of grid points                  ...     4034
Total number of batches                      ...       67
Average number of points per batch           ...       60
Average number of grid points per atom       ...      576
UseSFitting                                  ... on

GRIDX 2
-------
General Integration Accuracy     IntAcc      ... 4.020
Radial Grid Type                 RadialGrid  ... OptM3 with GC (2021)
Angular Grid (max. ang.)         AngularGrid ... 2 (Lebedev-110)
Angular grid pruning method      GridPruning ... 4 (adaptive)
Weight generation scheme         WeightScheme... Becke
Basis function cutoff            BFCut       ... 1.0000e-11
Integration weight cutoff        WCut        ... 1.0000e-14
Angular grids for H and He will be reduced by one unit
Partially contracted basis set               ... on
Rotationally invariant grid construction     ... off

Total number of grid points                  ...     8709
Total number of batches                      ...      141
Average number of points per batch           ...       61
Average number of grid points per atom       ...     1244
UseSFitting                                  ... on

GRIDX 3
-------
General Integration Accuracy     IntAcc      ... 4.338
Radial Grid Type                 RadialGrid  ... OptM3 with GC (2021)
Angular Grid (max. ang.)         AngularGrid ... 3 (Lebedev-194)
Angular grid pruning method      GridPruning ... 4 (adaptive)
Weight generation scheme         WeightScheme... Becke
Basis function cutoff            BFCut       ... 1.0000e-11
Integration weight cutoff        WCut        ... 1.0000e-14
Angular grids for H and He will be reduced by one unit
Partially contracted basis set               ... on
Rotationally invariant grid construction     ... off

Total number of grid points                  ...    19259
Total number of batches                      ...      304
Average number of points per batch           ...       63
Average number of grid points per atom       ...     2751
UseSFitting                                  ... on

Time for X-Grid setup             =    0.080 sec

--------------
SCF ITERATIONS
--------------
ITER       Energy         Delta-E        Max-DP      RMS-DP      [F,P]     Damp
               ***  Starting incremental Fock matrix formation  ***
  0   -153.5618315886   0.000000000000 0.03544458  0.00127770  0.1760525 0.7000
  1   -153.5978210065  -0.035989417939 0.01984395  0.00094567  0.0777966 0.7000
                               ***Turning on DIIS***
  2   -153.6121160458  -0.014295039234 0.03044193  0.00154922  0.0346295 0.0000
  3   -153.6339359933  -0.021819947489 0.01477282  0.00072657  0.0416928 0.0000
  4   -153.6392563296  -0.005320336363 0.00545144  0.00022231  0.0077577 0.0000
  5   -153.6394536861  -0.000197356501 0.00200634  0.00008732  0.0045982 0.0000
                      *** Initiating the SOSCF procedure ***
                           *** Shutting down DIIS ***
                      *** Re-Reading the Fockian *** 
                      *** Removing any level shift *** 
ITER      Energy       Delta-E        Grad      Rot      Max-DP    RMS-DP
  6   -153.63948501  -0.0000313207  0.000157  0.000157  0.000969  0.000043
               *** Restarting incremental Fock matrix formation ***
  7   -153.63947849   0.0000065152  0.000066  0.000121  0.000150  0.000006
  8   -153.63947845   0.0000000429  0.000099  0.000073  0.000091  0.000004
  9   -153.63947857  -0.0000001176  0.000009  0.000013  0.000022  0.000001
 10   -153.63947857   0.0000000011  0.000011  0.000008  0.000014  0.000000
                 **** Energy Check signals convergence ****
              ***Rediagonalizing the Fockian in SOSCF/NRSCF***

               *****************************************************
               *                     SUCCESS                       *
               *           SCF CONVERGED AFTER  11 CYCLES          *
               *****************************************************

Old exchange energy                            =     -5.009130319 Eh
New exchange energy                            =     -5.009110246 Eh
Exchange energy change after final integration =      0.000020073 Eh
Total energy after final integration           =   -153.639458496 Eh
Final COS-X integration done in                =     0.273 sec

----------------
TOTAL SCF ENERGY
----------------

Total Energy       :         -153.63945850 Eh           -4180.74221 eV

Components:
Nuclear Repulsion  :           77.84477536 Eh            2118.26403 eV
Electronic Energy  :         -231.48423385 Eh           -6299.00624 eV
One Electron Energy:         -362.11871356 Eh           -9853.75115 eV
Two Electron Energy:          130.63447971 Eh            3554.74491 eV
Max COSX asymmetry :            0.00000234 Eh               0.00006 eV

Virial components:
Potential Energy   :         -306.86394362 Eh           -8350.19242 eV
Kinetic Energy     :          153.22448513 Eh            4169.45021 eV
Virial Ratio       :            2.00270827


DFT components:
N(Alpha)           :       11.999999393991 electrons
N(Beta)            :       11.999999393991 electrons
N(Total)           :       23.999998787982 electrons
E(X)               :      -14.992522719286 Eh       
E(C)               :       -0.795470086009 Eh       
E(XC)              :      -15.787992805295 Eh       
DFET-embed. en.    :        0.000000000000 Eh       

---------------
SCF CONVERGENCE
---------------

  Last Energy change         ...   -3.3338e-09  Tolerance :   1.0000e-08
  Last MAX-Density change    ...    9.9920e-16  Tolerance :   1.0000e-07
  Last RMS-Density change    ...    2.1019e-17  Tolerance :   5.0000e-09
  Last Orbital Gradient      ...    3.5210e-07  Tolerance :   1.0000e-05
  Last Orbital Rotation      ...    5.4793e-07  Tolerance :   1.0000e-05

             **** THE GBW FILE WAS UPDATED (ox_gs_A_orca0031.gbw) ****
             **** DENSITY ox_gs_A_orca0031.scfp WAS UPDATED ****
             **** ENERGY FILE WAS UPDATED (ox_gs_A_orca0031.en.tmp) ****
             **** THE GBW FILE WAS UPDATED (ox_gs_A_orca0031.gbw) ****
             **** DENSITY ox_gs_A_orca0031.scfp WAS UPDATED ****
----------------
ORBITAL ENERGIES
----------------

  NO   OCC          E(Eh)            E(eV) 
   0   2.0000     -19.224739      -523.1317 
   1   2.0000     -10.281296      -279.7683 
   2   2.0000     -10.269243      -279.4403 
   3   2.0000      -1.161053       -31.5939 
   4   2.0000      -0.710030       -19.3209 
   5   2.0000      -0.648393       -17.6437 
   6   2.0000      -0.544393       -14.8137 
   7   2.0000      -0.521127       -14.1806 
   8   2.0000      -0.418852       -11.3976 
   9   2.0000      -0.365936        -9.9576 
  10   2.0000      -0.357374        -9.7247 
  11   2.0000      -0.287982        -7.8364 
  12   0.0000       0.057578         1.5668 
  13   0.0000       0.072334         1.9683 
  14   0.0000       0.087930         2.3927 
  15   0.0000       0.090646         2.4666 
  16   0.0000       0.126778         3.4498 
  17   0.0000       0.152753         4.1566 
  18   0.0000       0.185721         5.0537 
  19   0.0000       0.229200         6.2369 
  20   0.0000       0.271507         7.3881 
  21   0.0000       0.275355         7.4928 
  22   0.0000       0.288073         7.8389 
  23   0.0000       0.357789         9.7359 
  24   0.0000       0.374411        10.1883 
  25   0.0000       0.403429        10.9778 
  26   0.0000       0.416825        11.3424 
  27   0.0000       0.426227        11.5982 
  28   0.0000       0.445588        12.1251 
  29   0.0000       0.471724        12.8363 
  30   0.0000       0.504586        13.7305 
  31   0.0000       0.519966        14.1490 
  32   0.0000       0.553603        15.0643 
  33   0.0000       0.702252        19.1093 
  34   0.0000       0.722292        19.6546 
  35   0.0000       0.735201        20.0058 
  36   0.0000       0.825195        22.4547 
  37   0.0000       0.858304        23.3556 
  38   0.0000       0.861078        23.4311 
  39   0.0000       0.968509        26.3545 
  40   0.0000       1.041347        28.3365 
  41   0.0000       1.064004        28.9530 
  42   0.0000       1.098508        29.8919 
  43   0.0000       1.118241        30.4289 
  44   0.0000       1.220361        33.2077 
  45   0.0000       1.368843        37.2481 
  46   0.0000       1.463983        39.8370 
  47   0.0000       1.512886        41.1677 
  48   0.0000       1.520793        41.3829 
  49   0.0000       1.527094        41.5543 
  50   0.0000       1.572451        42.7886 
  51   0.0000       1.610494        43.8238 
  52   0.0000       1.639702        44.6186 
  53   0.0000       1.676222        45.6123 
  54   0.0000       1.731927        47.1281 
  55   0.0000       1.768128        48.1132 
  56   0.0000       1.799723        48.9729 
  57   0.0000       1.926613        52.4258 
  58   0.0000       1.947614        52.9973 
  59   0.0000       2.020790        54.9885 
  60   0.0000       2.071473        56.3676 
  61   0.0000       2.169875        59.0453 
  62   0.0000       2.202802        59.9413 
  63   0.0000       2.281230        62.0754 
  64   0.0000       2.308828        62.8264 
  65   0.0000       2.358767        64.1853 
  66   0.0000       2.405578        65.4591 
  67   0.0000       2.460568        66.9555 
  68   0.0000       2.544102        69.2285 
  69   0.0000       2.581413        70.2438 
  70   0.0000       2.688331        73.1532 
  71   0.0000       2.704291        73.5875 
  72   0.0000       2.707703        73.6804 
  73   0.0000       2.717018        73.9338 
  74   0.0000       2.775200        75.5170 
  75   0.0000       2.809117        76.4400 
  76   0.0000       2.890603        78.6573 
  77   0.0000       2.961104        80.5757 
  78   0.0000       3.007419        81.8360 
  79   0.0000       3.053479        83.0894 
  80   0.0000       3.057133        83.1888 
  81   0.0000       3.078623        83.7736 
  82   0.0000       3.106589        84.5346 
  83   0.0000       3.255532        88.5875 
  84   0.0000       3.341248        90.9200 
  85   0.0000       3.411759        92.8387 
  86   0.0000       3.423987        93.1714 
  87   0.0000       3.444140        93.7198 
  88   0.0000       3.556693        96.7825 
  89   0.0000       3.647723        99.2596 
  90   0.0000       3.675888       100.0260 
  91   0.0000       3.740955       101.7966 
  92   0.0000       3.936209       107.1097 
  93   0.0000       4.121903       112.1627 
  94   0.0000       4.131945       112.4359 
  95   0.0000       4.226935       115.0207 
  96   0.0000       4.300266       117.0162 
  97   0.0000       4.340880       118.1213 
  98   0.0000       4.470125       121.6383 
  99   0.0000       4.570463       124.3686 
 100   0.0000       4.800627       130.6317 
 101   0.0000       4.851101       132.0052 
 102   0.0000       5.321790       144.8133 
 103   0.0000       5.486260       149.2887 
 104   0.0000       5.789236       157.5331 
 105   0.0000       5.813888       158.2039 
 106   0.0000       5.857269       159.3844 
 107   0.0000       6.005631       163.4215 
 108   0.0000       6.151213       167.3830 
 109   0.0000       6.594408       179.4430 
 110   0.0000       6.661171       181.2597 
 111   0.0000       6.837871       186.0679 
 112   0.0000       6.984129       190.0478 
 113   0.0000       7.163866       194.9387 
 114   0.0000      22.253386       605.5454 
 115   0.0000      22.750119       619.0622 
 116   0.0000      43.898770      1194.5463 

                    ********************************
                    * MULLIKEN POPULATION ANALYSIS *
                    ********************************

-----------------------
MULLIKEN ATOMIC CHARGES
-----------------------
   0 O :   -0.309634
   1 C :   -0.060992
   2 C :   -0.058361
   3 H :    0.106919
   4 H :    0.105010
   5 H :    0.099961
   6 H :    0.117098
Sum of atomic charges:   -0.0000000

--------------------------------
MULLIKEN REDUCED ORBITAL CHARGES
--------------------------------
  0 O s       :     3.850357  s :     3.850357
      pz      :     1.803269  p :     4.407371
      px      :     1.340976
      py      :     1.263127
      dz2     :     0.006177  d :     0.049178
      dxz     :     0.003237
      dyz     :     0.008740
      dx2y2   :     0.014248
      dxy     :     0.016775
      f0      :     0.000338  f :     0.002727
      f+1     :     0.000204
      f-1     :     0.000527
      f+2     :     0.000151
      f-2     :     0.000252
      f+3     :     0.000466
      f-3     :     0.000789
  1 C s       :     3.190759  s :     3.190759
      pz      :     1.044596  p :     2.724166
      px      :     0.923215
      py      :     0.756355
      dz2     :     0.003641  d :     0.132464
      dxz     :     0.032938
      dyz     :     0.034582
      dx2y2   :     0.036388
      dxy     :     0.024915
      f0      :     0.001699  f :     0.013603
      f+1     :     0.001151
      f-1     :     0.000786
      f+2     :     0.002187
      f-2     :     0.001885
      f+3     :     0.002070
      f-3     :     0.003825
  2 C s       :     3.181428  s :     3.181428
      pz      :     1.039152  p :     2.730660
      px      :     0.933913
      py      :     0.757595
      dz2     :     0.006507  d :     0.132865
      dxz     :     0.030984
      dyz     :     0.033990
      dx2y2   :     0.037393
      dxy     :     0.023992
      f0      :     0.002023  f :     0.013409
      f+1     :     0.001258
      f-1     :     0.000649
      f+2     :     0.001787
      f-2     :     0.001895
      f+3     :     0.001993
      f-3     :     0.003803
  3 H s       :     0.875258  s :     0.875258
      pz      :     0.008506  p :     0.017823
      px      :     0.006577
      py      :     0.002741
  4 H s       :     0.877130  s :     0.877130
      pz      :     0.008529  p :     0.017860
      px      :     0.006466
      py      :     0.002865
  5 H s       :     0.882194  s :     0.882194
      pz      :     0.010373  p :     0.017845
      px      :     0.004537
      py      :     0.002936
  6 H s       :     0.860095  s :     0.860095
      pz      :     0.010530  p :     0.022807
      px      :     0.007917
      py      :     0.004360


                     *******************************
                     * LOEWDIN POPULATION ANALYSIS *
                     *******************************

----------------------
LOEWDIN ATOMIC CHARGES
----------------------
   0 O :    0.211500
   1 C :   -0.375394
   2 C :   -0.348827
   3 H :    0.131030
   4 H :    0.131214
   5 H :    0.141299
   6 H :    0.109176

-------------------------------
LOEWDIN REDUCED ORBITAL CHARGES
-------------------------------
  0 O s       :     3.326842  s :     3.326842
      pz      :     1.667938  p :     4.344360
      px      :     1.305013
      py      :     1.371410
      dz2     :     0.012540  d :     0.108450
      dxz     :     0.009425
      dyz     :     0.020323
      dx2y2   :     0.039977
      dxy     :     0.026185
      f0      :     0.000915  f :     0.008847
      f+1     :     0.000264
      f-1     :     0.001149
      f+2     :     0.000300
      f-2     :     0.001131
      f+3     :     0.001379
      f-3     :     0.003709
  1 C s       :     2.800879  s :     2.800879
      pz      :     1.013969  p :     2.900236
      px      :     1.066075
      py      :     0.820192
      dz2     :     0.046619  d :     0.579286
      dxz     :     0.179583
      dyz     :     0.100952
      dx2y2   :     0.127741
      dxy     :     0.124392
      f0      :     0.011304  f :     0.094992
      f+1     :     0.006484
      f-1     :     0.006751
      f+2     :     0.013796
      f-2     :     0.008024
      f+3     :     0.017265
      f-3     :     0.031369
  2 C s       :     2.786940  s :     2.786940
      pz      :     1.013071  p :     2.897269
      px      :     1.070949
      py      :     0.813249
      dz2     :     0.057521  d :     0.566731
      dxz     :     0.168963
      dyz     :     0.092845
      dx2y2   :     0.127656
      dxy     :     0.119746
      f0      :     0.014144  f :     0.097887
      f+1     :     0.007284
      f-1     :     0.006775
      f+2     :     0.012209
      f-2     :     0.008407
      f+3     :     0.017279
      f-3     :     0.031790
  3 H s       :     0.820980  s :     0.820980
      pz      :     0.024972  p :     0.047990
      px      :     0.015423
      py      :     0.007595
  4 H s       :     0.821040  s :     0.821040
      pz      :     0.024845  p :     0.047746
      px      :     0.015027
      py      :     0.007873
  5 H s       :     0.812988  s :     0.812988
      pz      :     0.027356  p :     0.045713
      px      :     0.010750
      py      :     0.007606
  6 H s       :     0.821826  s :     0.821826
      pz      :     0.033462  p :     0.068998
      px      :     0.021870
      py      :     0.013666


                      *****************************
                      * MAYER POPULATION ANALYSIS *
                      *****************************

  NA   - Mulliken gross atomic population
  ZA   - Total nuclear charge
  QA   - Mulliken gross atomic charge
  VA   - Mayer's total valence
  BVA  - Mayer's bonded valence
  FA   - Mayer's free valence

  ATOM       NA         ZA         QA         VA         BVA        FA
  0 O      8.3096     8.0000    -0.3096     2.0177     2.0177     0.0000
  1 C      6.0610     6.0000    -0.0610     4.0060     4.0060    -0.0000
  2 C      6.0584     6.0000    -0.0584     4.0316     4.0316    -0.0000
  3 H      0.8931     1.0000     0.1069     0.9568     0.9568     0.0000
  4 H      0.8950     1.0000     0.1050     0.9576     0.9576    -0.0000
  5 H      0.9000     1.0000     0.1000     0.9653     0.9653     0.0000
  6 H      0.8829     1.0000     0.1171     0.9570     0.9570    -0.0000

  Mayer bond orders larger than 0.100000
B(  0-O ,  1-C ) :   0.9921 B(  0-O ,  2-C ) :   0.9849 B(  1-C ,  2-C ) :   1.1233 
B(  1-C ,  3-H ) :   0.9355 B(  1-C ,  4-H ) :   0.9340 B(  2-C ,  5-H ) :   0.9421 
B(  2-C ,  6-H ) :   0.9523 

-------
TIMINGS
-------

Total SCF time: 0 days 0 hours 0 min 2 sec 

Total time                  ....       2.643 sec
Sum of individual times     ....       2.442 sec  ( 92.4%)

Fock matrix formation       ....       2.154 sec  ( 81.5%)
  Split-RI-J                ....       0.238 sec  ( 11.0% of F)
  Chain of spheres X        ....       1.484 sec  ( 68.9% of F)
  XC integration            ....       0.410 sec  ( 19.0% of F)
    Basis function eval.    ....       0.109 sec  ( 26.5% of XC)
    Density eval.           ....       0.082 sec  ( 20.0% of XC)
    XC-Functional eval.     ....       0.024 sec  (  5.8% of XC)
    XC-Potential eval.      ....       0.148 sec  ( 36.0% of XC)
Diagonalization             ....       0.016 sec  (  0.6%)
Density matrix formation    ....       0.001 sec  (  0.1%)
Population analysis         ....       0.003 sec  (  0.1%)
Initial guess               ....       0.019 sec  (  0.7%)
Orbital Transformation      ....       0.000 sec  (  0.0%)
Orbital Orthonormalization  ....       0.000 sec  (  0.0%)
DIIS solution               ....       0.013 sec  (  0.5%)
SOSCF solution              ....       0.011 sec  (  0.4%)
Grid generation             ....       0.224 sec  (  8.5%)

Maximum memory used throughout the entire SCF-calculation: 61.1 MB


-------------------------------------------------------------------------------
                          DFT DISPERSION CORRECTION                            
                                                                               
                              DFTD3 V3.1  Rev 1                                
                          USING Becke-Johnson damping                          
-------------------------------------------------------------------------------
The PBE0 functional is recognized
Active option DFTDOPT                   ...         4   

molecular C6(AA) [au] = 351.413058 


            DFT-D V3
 parameters
 s6 scaling factor         :     1.0000 
 a1 scaling factor         :     0.4145 
 s8 scaling factor         :     1.2177 
 a2 scaling factor         :     4.8593 
 ad hoc parameters k1-k3   :    16.0000     1.3333    -4.0000 

 Edisp/kcal,au: -1.510886047360  -0.002407749920 
 E6   /kcal   :  -0.990774950 
 E8   /kcal   :  -0.520111098 
 % E8         :  34.424243885 

-------------------------   ----------------
Dispersion correction           -0.002407750
-------------------------   ----------------


-------------------------   --------------------
FINAL SINGLE POINT ENERGY      -153.641866245819
-------------------------   --------------------



           ************************************************************
           *        Program running with 8 parallel MPI-processes     *
           *              working on a common directory               *
           ************************************************************
------------------------------------------------------------------------------
                         ORCA SCF GRADIENT CALCULATION
------------------------------------------------------------------------------

 ... reading COSX grid (gridx3)
Gradient of the Kohn-Sham DFT energy:
Kohn-Sham wavefunction type      ... RKS
Hartree-Fock exchange scaling    ...    0.250
Number of operators              ...    1
Number of atoms                  ...    7
Basis set dimensions             ...  117
Integral neglect threshold       ... 2.5e-11
Integral primitive cutoff        ... 2.5e-12
SHARK Integral package           ... ON

Nuc. rep. gradient       (SHARK) ... done (  0.0 sec)
HCore & Overlap gradient (SHARK) ... done (  0.0 sec)
RI-J gradient            (SHARK) ... done (  0.1 sec)
COSX-gradient                    ... done (  0.3 sec)
Exchange-correlation gradient    ... done
Dispersion correction            ... done

------------------
CARTESIAN GRADIENT
------------------

   1   O   :    0.013416164   -0.049493796   -0.012225822
   2   C   :    0.193797225    0.037376005    0.001791237
   3   C   :   -0.124524475    0.015707472    0.092747426
   4   H   :   -0.034805299   -0.013242812    0.023760018
   5   H   :   -0.034018886   -0.007600324   -0.025549483
   6   H   :    0.012565797    0.006492108   -0.042799467
   7   H   :   -0.026441556    0.010597050   -0.037823152

Difference to translation invariance:
           :   -0.0000110291   -0.0001642975   -0.0000992433

Difference to rotation invariance:
           :   -0.0000903221    0.0000828521    0.0000364002

Norm of the cartesian gradient     ...    0.2723689104
RMS gradient                       ...    0.0594357690
MAX gradient                       ...    0.1937972252

-------
TIMINGS
-------

Total SCF gradient time            ...        0.715 sec

One electron gradient       ....       0.010 sec  (  1.4%)
RI-J Coulomb gradient       ....       0.078 sec  ( 10.8%)
COSX gradient               ....       0.321 sec  ( 45.0%)
XC gradient                 ....       0.170 sec  ( 23.7%)

Maximum memory used throughout the entire SCFGRAD-calculation: 35.9 MB

                            ***************************************
                            *     ORCA property calculations      *
                            ***************************************

                                    ---------------------
                                    Active property flags
                                    ---------------------
   (+) Dipole Moment


------------------------------------------------------------------------------
                       ORCA ELECTRIC PROPERTIES CALCULATION
------------------------------------------------------------------------------

Dipole Moment Calculation                       ... on
Quadrupole Moment Calculation                   ... off
Polarizability Calculation                      ... off
GBWName                                         ... ox_gs_A_orca0031.gbw
Electron density                                ... ox_gs_A_orca0031.scfp
The origin for moment calculation is the CENTER OF MASS  = ( 0.103724, -0.049255 -0.051385)

-------------
DIPOLE MOMENT
-------------
                                X             Y             Z
Electronic contribution:      0.24508       1.67901       0.17725
Nuclear contribution   :     -0.21912      -2.32857      -0.11653
                        -----------------------------------------
Total Dipole Moment    :      0.02596      -0.64956       0.06072
                        -----------------------------------------
Magnitude (a.u.)       :      0.65291
Magnitude (Debye)      :      1.65956



--------------------
Rotational spectrum 
--------------------
 
Rotational constants in cm-1:     0.894928     0.808171     0.514632 
Rotational constants in MHz : 26829.269011 24228.352885 15428.293268 

 Dipole components along the rotational axes: 
x,y,z [a.u.] :    -0.108496    -0.642987     0.032951 
x,y,z [Debye]:    -0.275774    -1.634342     0.083755 

 

Timings for individual modules:

Sum of individual times         ...        4.156 sec (=   0.069 min)
GTO integral calculation        ...        0.362 sec (=   0.006 min)   8.7 %
SCF iterations                  ...        2.854 sec (=   0.048 min)  68.7 %
SCF Gradient evaluation         ...        0.940 sec (=   0.016 min)  22.6 %
                             ****ORCA TERMINATED NORMALLY****
TOTAL RUN TIME: 0 days 0 hours 0 minutes 4 seconds 474 msec
