
                                 *****************
                                 * O   R   C   A *
                                 *****************

                                            #,                                       
                                            ###                                      
                                            ####                                     
                                            #####                                    
                                            ######                                   
                                           ########,                                 
                                     ,,################,,,,,                         
                               ,,#################################,,                 
                          ,,##########################################,,             
                       ,#########################################, ''#####,          
                    ,#############################################,,   '####,        
                  ,##################################################,,,,####,       
                ,###########''''           ''''###############################       
              ,#####''   ,,,,##########,,,,          '''####'''          '####       
            ,##' ,,,,###########################,,,                        '##       
           ' ,,###''''                  '''############,,,                           
         ,,##''                                '''############,,,,        ,,,,,,###''
      ,#''                                            '''#######################'''  
     '                                                          ''''####''''         
             ,#######,   #######,   ,#######,      ##                                
            ,#'     '#,  ##    ##  ,#'     '#,    #''#        ######   ,####,        
            ##       ##  ##   ,#'  ##            #'  '#       #        #'  '#        
            ##       ##  #######   ##           ,######,      #####,   #    #        
            '#,     ,#'  ##    ##  '#,     ,#' ,#      #,         ##   #,  ,#        
             '#######'   ##     ##  '#######'  #'      '#     #####' # '####'        



                  #######################################################
                  #                        -***-                        #
                  #          Department of theory and spectroscopy      #
                  #    Directorship and core code : Frank Neese         #
                  #        Max Planck Institute fuer Kohlenforschung    #
                  #                Kaiser Wilhelm Platz 1               #
                  #                 D-45470 Muelheim/Ruhr               #
                  #                      Germany                        #
                  #                                                     #
                  #                  All rights reserved                #
                  #                        -***-                        #
                  #######################################################


                         Program Version 5.0.2 -  RELEASE  -


 With contributions from (in alphabetic order):
   Daniel Aravena         : Magnetic Suceptibility
   Michael Atanasov       : Ab Initio Ligand Field Theory (pilot matlab implementation)
   Alexander A. Auer      : GIAO ZORA, VPT2 properties, NMR spectrum
   Ute Becker             : Parallelization
   Giovanni Bistoni       : ED, misc. LED, open-shell LED, HFLD
   Martin Brehm           : Molecular dynamics
   Dmytro Bykov           : SCF Hessian
   Vijay G. Chilkuri      : MRCI spin determinant printing, contributions to CSF-ICE
   Dipayan Datta          : RHF DLPNO-CCSD density
   Achintya Kumar Dutta   : EOM-CC, STEOM-CC
   Dmitry Ganyushin       : Spin-Orbit,Spin-Spin,Magnetic field MRCI
   Miquel Garcia          : C-PCM and meta-GGA Hessian, CC/C-PCM, Gaussian charge scheme
   Yang Guo               : DLPNO-NEVPT2, F12-NEVPT2, CIM, IAO-localization
   Andreas Hansen         : Spin unrestricted coupled pair/coupled cluster methods
   Benjamin Helmich-Paris : MC-RPA, TRAH-SCF, COSX integrals
   Lee Huntington         : MR-EOM, pCC
   Robert Izsak           : Overlap fitted RIJCOSX, COSX-SCS-MP3, EOM
   Marcus Kettner         : VPT2
   Christian Kollmar      : KDIIS, OOCD, Brueckner-CCSD(T), CCSD density, CASPT2, CASPT2-K
   Simone Kossmann        : Meta GGA functionals, TD-DFT gradient, OOMP2, MP2 Hessian
   Martin Krupicka        : Initial AUTO-CI
   Lucas Lang             : DCDCAS
   Marvin Lechner         : AUTO-CI (C++ implementation), FIC-MRCC
   Dagmar Lenk            : GEPOL surface, SMD
   Dimitrios Liakos       : Extrapolation schemes; Compound Job, initial MDCI parallelization
   Dimitrios Manganas     : Further ROCIS development; embedding schemes
   Dimitrios Pantazis     : SARC Basis sets
   Anastasios Papadopoulos: AUTO-CI, single reference methods and gradients
   Taras Petrenko         : DFT Hessian,TD-DFT gradient, ASA, ECA, R-Raman, ABS, FL, XAS/XES, NRVS
   Peter Pinski           : DLPNO-MP2, DLPNO-MP2 Gradient
   Christoph Reimann      : Effective Core Potentials
   Marius Retegan         : Local ZFS, SOC
   Christoph Riplinger    : Optimizer, TS searches, QM/MM, DLPNO-CCSD(T), (RO)-DLPNO pert. Triples
   Tobias Risthaus        : Range-separated hybrids, TD-DFT gradient, RPA, STAB
   Michael Roemelt        : Original ROCIS implementation
   Masaaki Saitow         : Open-shell DLPNO-CCSD energy and density
   Barbara Sandhoefer     : DKH picture change effects
   Avijit Sen             : IP-ROCIS
   Kantharuban Sivalingam : CASSCF convergence, NEVPT2, FIC-MRCI
   Bernardo de Souza      : ESD, SOC TD-DFT
   Georgi Stoychev        : AutoAux, RI-MP2 NMR, DLPNO-MP2 response
   Willem Van den Heuvel  : Paramagnetic NMR
   Boris Wezisla          : Elementary symmetry handling
   Frank Wennmohs         : Technical directorship


 We gratefully acknowledge several colleagues who have allowed us to
 interface, adapt or use parts of their codes:
   Stefan Grimme, W. Hujo, H. Kruse, P. Pracht,  : VdW corrections, initial TS optimization,
                  C. Bannwarth, S. Ehlert          DFT functionals, gCP, sTDA/sTD-DF
   Ed Valeev, F. Pavosevic, A. Kumar             : LibInt (2-el integral package), F12 methods
   Garnet Chan, S. Sharma, J. Yang, R. Olivares  : DMRG
   Ulf Ekstrom                                   : XCFun DFT Library
   Mihaly Kallay                                 : mrcc  (arbitrary order and MRCC methods)
   Jiri Pittner, Ondrej Demel                    : Mk-CCSD
   Frank Weinhold                                : gennbo (NPA and NBO analysis)
   Christopher J. Cramer and Donald G. Truhlar   : smd solvation model
   Lars Goerigk                                  : TD-DFT with DH, B97 family of functionals
   V. Asgeirsson, H. Jonsson                     : NEB implementation
   FAccTs GmbH                                   : IRC, NEB, NEB-TS, DLPNO-Multilevel, CI-OPT
                                                   MM, QMMM, 2- and 3-layer-ONIOM, Crystal-QMMM,
                                                   LR-CPCM, SF, NACMEs, symmetry and pop. for TD-DFT,
                                                   nearIR, NL-DFT gradient (VV10), updates on ESD,
                                                   ML-optimized integration grids
   S Lehtola, MJT Oliveira, MAL Marques          : LibXC Library
   Liviu Ungur et al                             : ANISO software


 Your calculation uses the libint2 library for the computation of 2-el integrals
 For citations please refer to: http://libint.valeyev.net

 Your ORCA version has been built with support for libXC version: 5.1.0
 For citations please refer to: https://tddft.org/programs/libxc/

 This ORCA versions uses:
   CBLAS   interface :  Fast vector & matrix operations
   LAPACKE interface :  Fast linear algebra routines
   SCALAPACK package :  Parallel linear algebra routines
   Shared memory     :  Shared parallel matrices
   BLAS/LAPACK       :  OpenBLAS 0.3.15  USE64BITINT DYNAMIC_ARCH NO_AFFINITY SkylakeX SINGLE_THREADED
        Core in use  :  SkylakeX
   Copyright (c) 2011-2014, The OpenBLAS Project


Your calculation utilizes the atom-pairwise dispersion correction
with the Becke-Johnson damping scheme (D3BJ)
Cite in your paper:
S.Grimme, S.Ehrlich, L.Goerigk, J Comput Chem, (2011), 32, 1456–1465 
S.Grimme, J.Antony, S.Ehrlich and H.Krieg, J.Chem.Phys., 132, (2010), 154104 
   

================================================================================

----- Orbital basis set information -----
Your calculation utilizes the basis: def2-TZVP
   F. Weigend and R. Ahlrichs, Phys. Chem. Chem. Phys. 7, 3297 (2005).

----- AuxJ basis set information -----
Your calculation utilizes the auxiliary basis: def2/J
   F. Weigend, Phys. Chem. Chem. Phys. 8, 1057 (2006).

================================================================================
                                        WARNINGS
                       Please study these warnings very carefully!
================================================================================


INFO   : the flag for use of the SHARK integral package has been found!

================================================================================
                                       INPUT FILE
================================================================================
NAME = ox_gs_C_orca0002.inp
|  1> ! engrad PBE0 D3BJ def2-TZVP  
|  2> %pal nprocs 8 end
|  3> %maxcore 3000
|  4>  
|  5> *xyz 0 1 
|  6> O   -0.4356163810124476 0.849694283334698 0.017300420803394386
|  7> C   -0.7545762436479673 -0.5104050400686629 -0.030077326122229575
|  8> C   0.7891592974976144 -0.41851218958793146 -0.057612307452015704
|  9> H   -1.3196353357346975 -0.6966755530842329 0.8956947239536921
| 10> H   -1.2477461867721984 -0.6781471076345712 -0.8701794819648581
| 11> H   1.2463479854845791 -0.7529421770523438 -0.9764088836086361
| 12> H   1.3739286147488756 -0.7441863345273187 0.811854053148198
| 13> *
| 14> 
| 15>                          ****END OF INPUT****
================================================================================

                     *******************************
                     * Energy+Gradient Calculation *
                     *******************************

---------------------------------
CARTESIAN COORDINATES (ANGSTROEM)
---------------------------------
  O     -0.435616    0.849694    0.017300
  C     -0.754576   -0.510405   -0.030077
  C      0.789159   -0.418512   -0.057612
  H     -1.319635   -0.696676    0.895695
  H     -1.247746   -0.678147   -0.870179
  H      1.246348   -0.752942   -0.976409
  H      1.373929   -0.744186    0.811854

----------------------------
CARTESIAN COORDINATES (A.U.)
----------------------------
  NO LB      ZA    FRAG     MASS         X           Y           Z
   0 O     8.0000    0    15.999   -0.823196    1.605689    0.032693
   1 C     6.0000    0    12.011   -1.425942   -0.964526   -0.056838
   2 C     6.0000    0    12.011    1.491295   -0.790873   -0.108871
   3 H     1.0000    0     1.008   -2.493749   -1.316526    1.692618
   4 H     1.0000    0     1.008   -2.357899   -1.281512   -1.644401
   5 H     1.0000    0     1.008    2.355256   -1.422855   -1.845145
   6 H     1.0000    0     1.008    2.596349   -1.406308    1.534182

--------------------------------
INTERNAL COORDINATES (ANGSTROEM)
--------------------------------
 O      0   0   0     0.000000000000     0.00000000     0.00000000
 C      1   0   0     1.397801922448     0.00000000     0.00000000
 C      2   1   0     1.546713254667    73.44394694     0.00000000
 H      2   1   3     1.100473702671   104.67592900   120.12031842
 H      2   1   3     0.988496649607   107.92474771   243.62193931
 H      3   2   1     1.079375773906   114.80290601   246.05003892
 H      3   2   1     1.097265034208   120.01107661   109.92445820

---------------------------
INTERNAL COORDINATES (A.U.)
---------------------------
 O      0   0   0     0.000000000000     0.00000000     0.00000000
 C      1   0   0     2.641462822895     0.00000000     0.00000000
 C      2   1   0     2.922864459026    73.44394694     0.00000000
 H      2   1   3     2.079593915631   104.67592900   120.12031842
 H      2   1   3     1.867987952056   107.92474771   243.62193931
 H      3   2   1     2.039724608272   114.80290601   246.05003892
 H      3   2   1     2.073530410981   120.01107661   109.92445820

---------------------
BASIS SET INFORMATION
---------------------
There are 3 groups of distinct atoms

 Group   1 Type O   : 11s6p2d1f contracted to 5s3p2d1f pattern {62111/411/11/1}
 Group   2 Type C   : 11s6p2d1f contracted to 5s3p2d1f pattern {62111/411/11/1}
 Group   3 Type H   : 5s1p contracted to 3s1p pattern {311/1}

Atom   0O    basis set group =>   1
Atom   1C    basis set group =>   2
Atom   2C    basis set group =>   2
Atom   3H    basis set group =>   3
Atom   4H    basis set group =>   3
Atom   5H    basis set group =>   3
Atom   6H    basis set group =>   3
---------------------------------
AUXILIARY/J BASIS SET INFORMATION
---------------------------------
There are 3 groups of distinct atoms

 Group   1 Type O   : 12s5p4d2f1g contracted to 6s4p3d1f1g pattern {711111/2111/211/2/1}
 Group   2 Type C   : 12s5p4d2f1g contracted to 6s4p3d1f1g pattern {711111/2111/211/2/1}
 Group   3 Type H   : 5s2p1d contracted to 3s1p1d pattern {311/2/1}

Atom   0O    basis set group =>   1
Atom   1C    basis set group =>   2
Atom   2C    basis set group =>   2
Atom   3H    basis set group =>   3
Atom   4H    basis set group =>   3
Atom   5H    basis set group =>   3
Atom   6H    basis set group =>   3


           ************************************************************
           *        Program running with 8 parallel MPI-processes     *
           *              working on a common directory               *
           ************************************************************
------------------------------------------------------------------------------
                           ORCA GTO INTEGRAL CALCULATION
                           -- RI-GTO INTEGRALS CHOSEN --
------------------------------------------------------------------------------
------------------------------------------------------------------------------
                   ___                                                        
                  /   \      - P O W E R E D   B Y -                         
                 /     \                                                     
                 |  |  |   _    _      __       _____    __    __             
                 |  |  |  | |  | |    /  \     |  _  \  |  |  /  |          
                  \  \/   | |  | |   /    \    | | | |  |  | /  /          
                 / \  \   | |__| |  /  /\  \   | |_| |  |  |/  /          
                |  |  |   |  __  | /  /__\  \  |    /   |      \           
                |  |  |   | |  | | |   __   |  |    \   |  |\   \          
                \     /   | |  | | |  |  |  |  | |\  \  |  | \   \       
                 \___/    |_|  |_| |__|  |__|  |_| \__\ |__|  \__/        
                                                                              
                      - O R C A' S   B I G   F R I E N D -                    
                                      &                                       
                       - I N T E G R A L  F E E D E R -                       
                                                                              
 v1 FN, 2020, v2 2021                                                         
------------------------------------------------------------------------------


Reading SHARK input file ox_gs_C_orca0002.SHARKINP.tmp ... ok
----------------------
SHARK INTEGRAL PACKAGE
----------------------

Number of atoms                             ...      7
Number of basis functions                   ...    117
Number of shells                            ...     49
Maximum angular momentum                    ...      3
Integral batch strategy                     ... SHARK/LIBINT Hybrid
RI-J (if used) integral strategy            ... SPLIT-RIJ (Revised 2003 algorithm where possible)
Printlevel                                  ...      1
Contraction scheme used                     ... SEGMENTED contraction
Coulomb Range Separation                    ... NOT USED
Exchange Range Separation                   ... NOT USED
Finite Nucleus Model                        ... NOT USED
Auxiliary Coulomb fitting basis             ... AVAILABLE
   # of basis functions in Aux-J            ...    191
   # of shells in Aux-J                     ...     65
   Maximum angular momentum in Aux-J        ...      4
Auxiliary J/K fitting basis                 ... NOT available
Auxiliary Correlation fitting basis         ... NOT available
Auxiliary 'external' fitting basis          ... NOT available
Integral threshold                          ...     2.500000e-11
Primitive cut-off                           ...     2.500000e-12
Primitive pair pre-selection threshold      ...     2.500000e-12

Calculating pre-screening integrals         ... done (  0.0 sec) Dimension = 49
Organizing shell pair data                  ... done (  0.0 sec)
Shell pair information
Total number of shell pairs                 ...      1225
Shell pairs after pre-screening             ...      1217
Total number of primitive shell pairs       ...      3648
Primitive shell pairs kept                  ...      3118
          la=0 lb=0:    370 shell pairs
          la=1 lb=0:    351 shell pairs
          la=1 lb=1:     91 shell pairs
          la=2 lb=0:    162 shell pairs
          la=2 lb=1:     78 shell pairs
          la=2 lb=2:     21 shell pairs
          la=3 lb=0:     81 shell pairs
          la=3 lb=1:     39 shell pairs
          la=3 lb=2:     18 shell pairs
          la=3 lb=3:      6 shell pairs

Calculating one electron integrals          ... done (  0.0 sec)
Calculating RI/J V-Matrix + Cholesky decomp.... done (  0.0 sec)
Calculating Nuclear repulsion               ... done (  0.0 sec) ENN=     71.411163526226 Eh

SHARK setup successfully completed in   0.1 seconds

Maximum memory used throughout the entire GTOINT-calculation: 14.9 MB


           ************************************************************
           *        Program running with 8 parallel MPI-processes     *
           *              working on a common directory               *
           ************************************************************
-------------------------------------------------------------------------------
                                 ORCA SCF
-------------------------------------------------------------------------------

------------
SCF SETTINGS
------------
Hamiltonian:
 Density Functional     Method          .... DFT(GTOs)
 Exchange Functional    Exchange        .... PBE
   PBE kappa parameter   XKappa         ....  0.804000
   PBE mue parameter    XMuePBE         ....  0.219520
 Correlation Functional Correlation     .... PBE
   PBE beta parameter  CBetaPBE         ....  0.066725
 LDA part of GGA corr.  LDAOpt          .... PW91-LDA
 Gradients option       PostSCFGGA      .... off
 Hybrid DFT is turned on
   Fraction HF Exchange ScalHFX         ....  0.250000
   Scaling of DF-GGA-X  ScalDFX         ....  0.750000
   Scaling of DF-GGA-C  ScalDFC         ....  1.000000
   Scaling of DF-LDA-C  ScalLDAC        ....  1.000000
   Perturbative correction              ....  0.000000
   Density functional embedding theory  .... OFF
   NL short-range parameter             ....  6.900000
 RI-approximation to the Coulomb term is turned on
   Number of AuxJ basis functions       .... 191
   RIJ-COSX (HFX calculated with COS-X)).... on


General Settings:
 Integral files         IntName         .... ox_gs_C_orca0002
 Hartree-Fock type      HFTyp           .... RHF
 Total Charge           Charge          ....    0
 Multiplicity           Mult            ....    1
 Number of Electrons    NEL             ....   24
 Basis Dimension        Dim             ....  117
 Nuclear Repulsion      ENuc            ....     71.4111635262 Eh

Convergence Acceleration:
 DIIS                   CNVDIIS         .... on
   Start iteration      DIISMaxIt       ....    12
   Startup error        DIISStart       ....  0.200000
   # of expansion vecs  DIISMaxEq       ....     5
   Bias factor          DIISBfac        ....   1.050
   Max. coefficient     DIISMaxC        ....  10.000
 Trust-Rad. Augm. Hess. CNVTRAH         .... auto
   Auto Start mean grad. ratio tolernc. ....  1.125000
   Auto Start start iteration           ....    20
   Auto Start num. interpolation iter.  ....    10
   Max. Number of Micro iterations      ....    16
   Max. Number of Macro iterations      .... Maxiter - #DIIS iter
   Number of Davidson start vectors     ....     2
   Converg. threshold I  (grad. norm)   ....   1.000e-05
   Converg. threshold II (energy diff.) ....   1.000e-08
   Grad. Scal. Fac. for Micro threshold ....   0.100
   Minimum threshold for Micro iter.    ....   0.010
   NR start threshold (gradient norm)   ....   0.001
   Initial trust radius                 ....   0.400
   Minimum AH scaling param. (alpha)    ....   1.000
   Maximum AH scaling param. (alpha)    .... 1000.000
   Orbital update algorithm             .... Taylor
   White noise on init. David. guess    .... on
   Maximum white noise                  ....   0.010
   Quad. conv. algorithm                .... NR
 SOSCF                  CNVSOSCF        .... on
   Start iteration      SOSCFMaxIt      ....   150
   Startup grad/error   SOSCFStart      ....  0.003300
 Level Shifting         CNVShift        .... on
   Level shift para.    LevelShift      ....    0.2500
   Turn off err/grad.   ShiftErr        ....    0.0010
 Zerner damping         CNVZerner       .... off
 Static damping         CNVDamp         .... on
   Fraction old density DampFac         ....    0.7000
   Max. Damping (<1)    DampMax         ....    0.9800
   Min. Damping (>=0)   DampMin         ....    0.0000
   Turn off err/grad.   DampErr         ....    0.1000
 Fernandez-Rico         CNVRico         .... off

SCF Procedure:
 Maximum # iterations   MaxIter         ....   125
 SCF integral mode      SCFMode         .... Direct
   Integral package                     .... SHARK and LIBINT hybrid scheme
 Reset frequency        DirectResetFreq ....    20
 Integral Threshold     Thresh          ....  2.500e-11 Eh
 Primitive CutOff       TCut            ....  2.500e-12 Eh

Convergence Tolerance:
 Convergence Check Mode ConvCheckMode   .... Total+1el-Energy
 Convergence forced     ConvForced      .... 0
 Energy Change          TolE            ....  1.000e-08 Eh
 1-El. energy change                    ....  1.000e-05 Eh
 Orbital Gradient       TolG            ....  1.000e-05
 Orbital Rotation angle TolX            ....  1.000e-05
 DIIS Error             TolErr          ....  5.000e-07


Diagonalization of the overlap matrix:
Smallest eigenvalue                        ... 6.835e-04
Time for diagonalization                   ...    0.001 sec
Threshold for overlap eigenvalues          ... 1.000e-08
Number of eigenvalues below threshold      ... 0
Time for construction of square roots      ...    0.001 sec
Total time needed                          ...    0.003 sec

Time for model grid setup =    0.022 sec

------------------------------
INITIAL GUESS: MODEL POTENTIAL
------------------------------
Loading Hartree-Fock densities                     ... done
Calculating cut-offs                               ... done
Initializing the effective Hamiltonian             ... done
Setting up the integral package (SHARK)            ... done
Starting the Coulomb interaction                   ... done (   0.0 sec)
Reading the grid                                   ... done
Mapping shells                                     ... done
Starting the XC term evaluation                    ... done (   0.0 sec)
  promolecular density results
     # of electrons  =     23.997522754
     EX              =    -19.485016177
     EC              =     -0.772084159
     EX+EC           =    -20.257100336
Transforming the Hamiltonian                       ... done (   0.0 sec)
Diagonalizing the Hamiltonian                      ... done (   0.0 sec)
Back transforming the eigenvectors                 ... done (   0.0 sec)
Now organizing SCF variables                       ... done
                      ------------------
                      INITIAL GUESS DONE (   0.0 sec)
                      ------------------
-------------------
DFT GRID GENERATION
-------------------

General Integration Accuracy     IntAcc      ... 4.388
Radial Grid Type                 RadialGrid  ... OptM3 with GC (2021)
Angular Grid (max. ang.)         AngularGrid ... 4 (Lebedev-302)
Angular grid pruning method      GridPruning ... 4 (adaptive)
Weight generation scheme         WeightScheme... Becke
Basis function cutoff            BFCut       ... 1.0000e-11
Integration weight cutoff        WCut        ... 1.0000e-14
Angular grids for H and He will be reduced by one unit
Partially contracted basis set               ... off
Rotationally invariant grid construction     ... off

Total number of grid points                  ...    31323
Total number of batches                      ...      494
Average number of points per batch           ...       63
Average number of grid points per atom       ...     4475
Time for grid setup =    0.111 sec

--------------------
COSX GRID GENERATION
--------------------

GRIDX 1
-------
General Integration Accuracy     IntAcc      ... 3.816
Radial Grid Type                 RadialGrid  ... OptM3 with GC (2021)
Angular Grid (max. ang.)         AngularGrid ... 1 (Lebedev-50)
Angular grid pruning method      GridPruning ... 4 (adaptive)
Weight generation scheme         WeightScheme... Becke
Basis function cutoff            BFCut       ... 1.0000e-11
Integration weight cutoff        WCut        ... 1.0000e-14
Angular grids for H and He will be reduced by one unit
Partially contracted basis set               ... on
Rotationally invariant grid construction     ... off

Total number of grid points                  ...     4034
Total number of batches                      ...       68
Average number of points per batch           ...       59
Average number of grid points per atom       ...      576
UseSFitting                                  ... on

GRIDX 2
-------
General Integration Accuracy     IntAcc      ... 4.020
Radial Grid Type                 RadialGrid  ... OptM3 with GC (2021)
Angular Grid (max. ang.)         AngularGrid ... 2 (Lebedev-110)
Angular grid pruning method      GridPruning ... 4 (adaptive)
Weight generation scheme         WeightScheme... Becke
Basis function cutoff            BFCut       ... 1.0000e-11
Integration weight cutoff        WCut        ... 1.0000e-14
Angular grids for H and He will be reduced by one unit
Partially contracted basis set               ... on
Rotationally invariant grid construction     ... off

Total number of grid points                  ...     8732
Total number of batches                      ...      140
Average number of points per batch           ...       62
Average number of grid points per atom       ...     1247
UseSFitting                                  ... on

GRIDX 3
-------
General Integration Accuracy     IntAcc      ... 4.338
Radial Grid Type                 RadialGrid  ... OptM3 with GC (2021)
Angular Grid (max. ang.)         AngularGrid ... 3 (Lebedev-194)
Angular grid pruning method      GridPruning ... 4 (adaptive)
Weight generation scheme         WeightScheme... Becke
Basis function cutoff            BFCut       ... 1.0000e-11
Integration weight cutoff        WCut        ... 1.0000e-14
Angular grids for H and He will be reduced by one unit
Partially contracted basis set               ... on
Rotationally invariant grid construction     ... off

Total number of grid points                  ...    19257
Total number of batches                      ...      305
Average number of points per batch           ...       63
Average number of grid points per atom       ...     2751
UseSFitting                                  ... on

Time for X-Grid setup             =    0.072 sec

--------------
SCF ITERATIONS
--------------
ITER       Energy         Delta-E        Max-DP      RMS-DP      [F,P]     Damp
               ***  Starting incremental Fock matrix formation  ***
  0   -153.5346518404   0.000000000000 0.04051329  0.00127230  0.1991652 0.7000
  1   -153.5691829614  -0.034531120983 0.02319301  0.00085473  0.0734733 0.7000
                               ***Turning on DIIS***
  2   -153.5810368413  -0.011853879900 0.02534880  0.00130679  0.0346267 0.0000
  3   -153.6034006556  -0.022363814237 0.01688678  0.00069177  0.0379351 0.0000
  4   -153.6064893844  -0.003088728809 0.00640537  0.00020848  0.0212046 0.0000
                      *** Initiating the SOSCF procedure ***
                           *** Shutting down DIIS ***
                      *** Re-Reading the Fockian *** 
                      *** Removing any level shift *** 
ITER      Energy       Delta-E        Grad      Rot      Max-DP    RMS-DP
  5   -153.60715876  -0.0006693790  0.000624  0.000624  0.001414  0.000051
               *** Restarting incremental Fock matrix formation ***
  6   -153.60719244  -0.0000336805  0.000319  0.001167  0.000862  0.000030
  7   -153.60719056   0.0000018848  0.000591  0.000672  0.000555  0.000018
  8   -153.60719394  -0.0000033820  0.000123  0.000225  0.000290  0.000009
  9   -153.60719380   0.0000001395  0.000122  0.000092  0.000154  0.000005
 10   -153.60719415  -0.0000003501  0.000008  0.000018  0.000016  0.000001
 11   -153.60719415  -0.0000000002  0.000008  0.000006  0.000009  0.000000
                  ***Gradient check signals convergence***
              ***Rediagonalizing the Fockian in SOSCF/NRSCF***

               *****************************************************
               *                     SUCCESS                       *
               *           SCF CONVERGED AFTER  12 CYCLES          *
               *****************************************************

Old exchange energy                            =     -4.971797603 Eh
New exchange energy                            =     -4.971805772 Eh
Exchange energy change after final integration =     -0.000008169 Eh
Total energy after final integration           =   -153.607202323 Eh
Final COS-X integration done in                =     0.258 sec

----------------
TOTAL SCF ENERGY
----------------

Total Energy       :         -153.60720232 Eh           -4179.86448 eV

Components:
Nuclear Repulsion  :           71.41116353 Eh            1943.19655 eV
Electronic Energy  :         -225.01836585 Eh           -6123.06103 eV
One Electron Energy:         -349.57703780 Eh           -9512.47480 eV
Two Electron Energy:          124.55867195 Eh            3389.41378 eV
Max COSX asymmetry :            0.00000082 Eh               0.00002 eV

Virial components:
Potential Energy   :         -306.37819848 Eh           -8336.97462 eV
Kinetic Energy     :          152.77099616 Eh            4157.11015 eV
Virial Ratio       :            2.00547359


DFT components:
N(Alpha)           :       12.000000757482 electrons
N(Beta)            :       12.000000757482 electrons
N(Total)           :       24.000001514964 electrons
E(X)               :      -14.906933593834 Eh       
E(C)               :       -0.780134179682 Eh       
E(XC)              :      -15.687067773516 Eh       
DFET-embed. en.    :        0.000000000000 Eh       

---------------
SCF CONVERGENCE
---------------

  Last Energy change         ...   -2.3263e-09  Tolerance :   1.0000e-08
  Last MAX-Density change    ...    1.2212e-15  Tolerance :   1.0000e-07
  Last RMS-Density change    ...    2.0731e-17  Tolerance :   5.0000e-09
  Last Orbital Gradient      ...    8.6331e-07  Tolerance :   1.0000e-05
  Last Orbital Rotation      ...    1.1278e-06  Tolerance :   1.0000e-05

             **** THE GBW FILE WAS UPDATED (ox_gs_C_orca0002.gbw) ****
             **** DENSITY ox_gs_C_orca0002.scfp WAS UPDATED ****
             **** ENERGY FILE WAS UPDATED (ox_gs_C_orca0002.en.tmp) ****
             **** THE GBW FILE WAS UPDATED (ox_gs_C_orca0002.gbw) ****
             **** DENSITY ox_gs_C_orca0002.scfp WAS UPDATED ****
----------------
ORBITAL ENERGIES
----------------

  NO   OCC          E(Eh)            E(eV) 
   0   2.0000     -19.224722      -523.1313 
   1   2.0000     -10.302036      -280.3327 
   2   2.0000     -10.268316      -279.4151 
   3   2.0000      -1.044754       -28.4292 
   4   2.0000      -0.725035       -19.7292 
   5   2.0000      -0.650467       -17.7001 
   6   2.0000      -0.515943       -14.0395 
   7   2.0000      -0.488602       -13.2955 
   8   2.0000      -0.417063       -11.3489 
   9   2.0000      -0.396148       -10.7797 
  10   2.0000      -0.313543        -8.5319 
  11   2.0000      -0.281947        -7.6722 
  12   0.0000      -0.039792        -1.0828 
  13   0.0000       0.067267         1.8304 
  14   0.0000       0.072825         1.9817 
  15   0.0000       0.100326         2.7300 
  16   0.0000       0.112957         3.0737 
  17   0.0000       0.152213         4.1419 
  18   0.0000       0.184733         5.0269 
  19   0.0000       0.195155         5.3104 
  20   0.0000       0.253592         6.9006 
  21   0.0000       0.265894         7.2354 
  22   0.0000       0.275704         7.5023 
  23   0.0000       0.309729         8.4282 
  24   0.0000       0.346317         9.4238 
  25   0.0000       0.384032        10.4500 
  26   0.0000       0.400508        10.8984 
  27   0.0000       0.419936        11.4270 
  28   0.0000       0.455562        12.3965 
  29   0.0000       0.481504        13.1024 
  30   0.0000       0.500361        13.6155 
  31   0.0000       0.534821        14.5532 
  32   0.0000       0.564301        15.3554 
  33   0.0000       0.660299        17.9676 
  34   0.0000       0.701262        19.0823 
  35   0.0000       0.758080        20.6284 
  36   0.0000       0.804924        21.9031 
  37   0.0000       0.853052        23.2127 
  38   0.0000       0.863863        23.5069 
  39   0.0000       0.914196        24.8765 
  40   0.0000       0.958393        26.0792 
  41   0.0000       1.021575        27.7985 
  42   0.0000       1.063662        28.9437 
  43   0.0000       1.081394        29.4262 
  44   0.0000       1.137466        30.9520 
  45   0.0000       1.353442        36.8290 
  46   0.0000       1.418958        38.6118 
  47   0.0000       1.460087        39.7310 
  48   0.0000       1.492028        40.6001 
  49   0.0000       1.507256        41.0145 
  50   0.0000       1.571745        42.7693 
  51   0.0000       1.636378        44.5281 
  52   0.0000       1.663617        45.2693 
  53   0.0000       1.684102        45.8267 
  54   0.0000       1.756605        47.7997 
  55   0.0000       1.775935        48.3256 
  56   0.0000       1.860345        50.6226 
  57   0.0000       1.908850        51.9425 
  58   0.0000       1.923002        52.3275 
  59   0.0000       1.938411        52.7468 
  60   0.0000       1.973393        53.6988 
  61   0.0000       2.086221        56.7689 
  62   0.0000       2.110662        57.4340 
  63   0.0000       2.275500        61.9195 
  64   0.0000       2.304822        62.7174 
  65   0.0000       2.380150        64.7672 
  66   0.0000       2.402619        65.3786 
  67   0.0000       2.465313        67.0846 
  68   0.0000       2.511935        68.3532 
  69   0.0000       2.554149        69.5019 
  70   0.0000       2.577669        70.1419 
  71   0.0000       2.585830        70.3640 
  72   0.0000       2.632060        71.6220 
  73   0.0000       2.743181        74.6457 
  74   0.0000       2.781754        75.6954 
  75   0.0000       2.791463        75.9596 
  76   0.0000       2.829740        77.0012 
  77   0.0000       2.961122        80.5762 
  78   0.0000       2.981360        81.1269 
  79   0.0000       3.041777        82.7710 
  80   0.0000       3.058881        83.2364 
  81   0.0000       3.096144        84.2504 
  82   0.0000       3.120732        84.9194 
  83   0.0000       3.160164        85.9924 
  84   0.0000       3.222957        87.7011 
  85   0.0000       3.281743        89.3008 
  86   0.0000       3.321156        90.3732 
  87   0.0000       3.346703        91.0684 
  88   0.0000       3.513224        95.5997 
  89   0.0000       3.584946        97.5513 
  90   0.0000       3.626874        98.6923 
  91   0.0000       3.699957       100.6809 
  92   0.0000       3.793747       103.2331 
  93   0.0000       3.872857       105.3858 
  94   0.0000       3.997947       108.7897 
  95   0.0000       4.053721       110.3074 
  96   0.0000       4.165972       113.3619 
  97   0.0000       4.248462       115.6065 
  98   0.0000       4.295490       116.8862 
  99   0.0000       4.541586       123.5828 
 100   0.0000       4.614585       125.5692 
 101   0.0000       4.829798       131.4255 
 102   0.0000       5.268154       143.3538 
 103   0.0000       5.271744       143.4515 
 104   0.0000       5.402409       147.0070 
 105   0.0000       5.508684       149.8989 
 106   0.0000       5.785961       157.4440 
 107   0.0000       5.819482       158.3562 
 108   0.0000       5.979218       162.7028 
 109   0.0000       6.461324       175.8216 
 110   0.0000       6.535080       177.8286 
 111   0.0000       6.789128       184.7416 
 112   0.0000       6.936067       188.7400 
 113   0.0000       7.063469       192.2068 
 114   0.0000      22.127763       602.1271 
 115   0.0000      22.527038       612.9919 
 116   0.0000      43.722002      1189.7362 

                    ********************************
                    * MULLIKEN POPULATION ANALYSIS *
                    ********************************

-----------------------
MULLIKEN ATOMIC CHARGES
-----------------------
   0 O :   -0.323739
   1 C :   -0.029242
   2 C :   -0.169019
   3 H :    0.114626
   4 H :    0.117152
   5 H :    0.142484
   6 H :    0.147738
Sum of atomic charges:   -0.0000000

--------------------------------
MULLIKEN REDUCED ORBITAL CHARGES
--------------------------------
  0 O s       :     3.890225  s :     3.890225
      pz      :     1.887513  p :     4.400754
      px      :     1.265284
      py      :     1.247957
      dz2     :     0.004223  d :     0.031216
      dxz     :     0.001147
      dyz     :     0.005628
      dx2y2   :     0.009054
      dxy     :     0.011164
      f0      :     0.000182  f :     0.001544
      f+1     :     0.000121
      f-1     :     0.000366
      f+2     :     0.000130
      f-2     :     0.000081
      f+3     :     0.000383
      f-3     :     0.000281
  1 C s       :     3.198572  s :     3.198572
      pz      :     1.067050  p :     2.688737
      px      :     0.908673
      py      :     0.713014
      dz2     :     0.007958  d :     0.130740
      dxz     :     0.020669
      dyz     :     0.042068
      dx2y2   :     0.029168
      dxy     :     0.030877
      f0      :     0.001736  f :     0.011193
      f+1     :     0.001289
      f-1     :     0.000751
      f+2     :     0.002446
      f-2     :     0.000532
      f+3     :     0.001946
      f-3     :     0.002492
  2 C s       :     3.276081  s :     3.276081
      pz      :     1.040075  p :     2.817739
      px      :     0.938257
      py      :     0.839406
      dz2     :     0.007682  d :     0.068482
      dxz     :     0.018666
      dyz     :     0.012267
      dx2y2   :     0.011319
      dxy     :     0.018548
      f0      :     0.000631  f :     0.006718
      f+1     :     0.001090
      f-1     :     0.000319
      f+2     :     0.000600
      f-2     :     0.000850
      f+3     :     0.001687
      f-3     :     0.001541
  3 H s       :     0.864696  s :     0.864696
      pz      :     0.010467  p :     0.020678
      px      :     0.006359
      py      :     0.003853
  4 H s       :     0.859093  s :     0.859093
      pz      :     0.011071  p :     0.023755
      px      :     0.007426
      py      :     0.005259
  5 H s       :     0.834504  s :     0.834504
      pz      :     0.010995  p :     0.023012
      px      :     0.006604
      py      :     0.005412
  6 H s       :     0.829870  s :     0.829870
      pz      :     0.009872  p :     0.022391
      px      :     0.007462
      py      :     0.005057


                     *******************************
                     * LOEWDIN POPULATION ANALYSIS *
                     *******************************

----------------------
LOEWDIN ATOMIC CHARGES
----------------------
   0 O :    0.028928
   1 C :   -0.350830
   2 C :   -0.127455
   3 H :    0.116949
   4 H :    0.085201
   5 H :    0.121576
   6 H :    0.125632

-------------------------------
LOEWDIN REDUCED ORBITAL CHARGES
-------------------------------
  0 O s       :     3.496434  s :     3.496434
      pz      :     1.796317  p :     4.401502
      px      :     1.236916
      py      :     1.368269
      dz2     :     0.009078  d :     0.068613
      dxz     :     0.002886
      dyz     :     0.014397
      dx2y2   :     0.020695
      dxy     :     0.021556
      f0      :     0.000456  f :     0.004523
      f+1     :     0.000178
      f-1     :     0.000685
      f+2     :     0.000600
      f-2     :     0.000305
      f+3     :     0.001235
      f-3     :     0.001065
  1 C s       :     2.825336  s :     2.825336
      pz      :     1.072784  p :     2.914929
      px      :     1.010871
      py      :     0.831275
      dz2     :     0.060412  d :     0.533489
      dxz     :     0.106712
      dyz     :     0.116357
      dx2y2   :     0.133805
      dxy     :     0.116203
      f0      :     0.010583  f :     0.077076
      f+1     :     0.005535
      f-1     :     0.007673
      f+2     :     0.015977
      f-2     :     0.002300
      f+3     :     0.013538
      f-3     :     0.021470
  2 C s       :     2.885363  s :     2.885363
      pz      :     1.088920  p :     2.939369
      px      :     1.037572
      py      :     0.812877
      dz2     :     0.036499  d :     0.272552
      dxz     :     0.090102
      dyz     :     0.035857
      dx2y2   :     0.050940
      dxy     :     0.059154
      f0      :     0.002994  f :     0.030172
      f+1     :     0.003562
      f-1     :     0.002364
      f+2     :     0.003074
      f-2     :     0.003807
      f+3     :     0.007069
      f-3     :     0.007302
  3 H s       :     0.824014  s :     0.824014
      pz      :     0.030870  p :     0.059037
      px      :     0.017312
      py      :     0.010855
  4 H s       :     0.836198  s :     0.836198
      pz      :     0.038174  p :     0.078601
      px      :     0.023667
      py      :     0.016760
  5 H s       :     0.810497  s :     0.810497
      pz      :     0.033993  p :     0.067927
      px      :     0.017953
      py      :     0.015981
  6 H s       :     0.809422  s :     0.809422
      pz      :     0.030515  p :     0.064946
      px      :     0.019685
      py      :     0.014746


                      *****************************
                      * MAYER POPULATION ANALYSIS *
                      *****************************

  NA   - Mulliken gross atomic population
  ZA   - Total nuclear charge
  QA   - Mulliken gross atomic charge
  VA   - Mayer's total valence
  BVA  - Mayer's bonded valence
  FA   - Mayer's free valence

  ATOM       NA         ZA         QA         VA         BVA        FA
  0 O      8.3237     8.0000    -0.3237     1.9377     1.9377    -0.0000
  1 C      6.0292     6.0000    -0.0292     3.9723     3.9723    -0.0000
  2 C      6.1690     6.0000    -0.1690     3.8972     3.8972    -0.0000
  3 H      0.8854     1.0000     0.1146     0.9668     0.9668    -0.0000
  4 H      0.8828     1.0000     0.1172     0.9623     0.9623    -0.0000
  5 H      0.8575     1.0000     0.1425     0.9591     0.9591    -0.0000
  6 H      0.8523     1.0000     0.1477     0.9599     0.9599     0.0000

  Mayer bond orders larger than 0.100000
B(  0-O ,  1-C ) :   0.9764 B(  0-O ,  2-C ) :   0.9495 B(  1-C ,  2-C ) :   1.0474 
B(  1-C ,  3-H ) :   0.9640 B(  1-C ,  4-H ) :   0.9724 B(  2-C ,  5-H ) :   0.9459 
B(  2-C ,  6-H ) :   0.9472 

-------
TIMINGS
-------

Total SCF time: 0 days 0 hours 0 min 2 sec 

Total time                  ....       2.891 sec
Sum of individual times     ....       2.573 sec  ( 89.0%)

Fock matrix formation       ....       2.308 sec  ( 79.8%)
  Split-RI-J                ....       0.241 sec  ( 10.5% of F)
  Chain of spheres X        ....       1.621 sec  ( 70.3% of F)
  XC integration            ....       0.422 sec  ( 18.3% of F)
    Basis function eval.    ....       0.113 sec  ( 26.8% of XC)
    Density eval.           ....       0.085 sec  ( 20.2% of XC)
    XC-Functional eval.     ....       0.025 sec  (  6.0% of XC)
    XC-Potential eval.      ....       0.143 sec  ( 33.9% of XC)
Diagonalization             ....       0.014 sec  (  0.5%)
Density matrix formation    ....       0.001 sec  (  0.0%)
Population analysis         ....       0.003 sec  (  0.1%)
Initial guess               ....       0.017 sec  (  0.6%)
Orbital Transformation      ....       0.000 sec  (  0.0%)
Orbital Orthonormalization  ....       0.000 sec  (  0.0%)
DIIS solution               ....       0.011 sec  (  0.4%)
SOSCF solution              ....       0.015 sec  (  0.5%)
Grid generation             ....       0.205 sec  (  7.1%)

Maximum memory used throughout the entire SCF-calculation: 61.0 MB


-------------------------------------------------------------------------------
                          DFT DISPERSION CORRECTION                            
                                                                               
                              DFTD3 V3.1  Rev 1                                
                          USING Becke-Johnson damping                          
-------------------------------------------------------------------------------
The PBE0 functional is recognized
Active option DFTDOPT                   ...         4   

molecular C6(AA) [au] = 359.564973 


            DFT-D V3
 parameters
 s6 scaling factor         :     1.0000 
 a1 scaling factor         :     0.4145 
 s8 scaling factor         :     1.2177 
 a2 scaling factor         :     4.8593 
 ad hoc parameters k1-k3   :    16.0000     1.3333    -4.0000 

 Edisp/kcal,au: -1.530460127730  -0.002438943200 
 E6   /kcal   :  -1.001564725 
 E8   /kcal   :  -0.528895403 
 % E8         :  34.557934140 

-------------------------   ----------------
Dispersion correction           -0.002438943
-------------------------   ----------------


-------------------------   --------------------
FINAL SINGLE POINT ENERGY      -153.609641266457
-------------------------   --------------------



           ************************************************************
           *        Program running with 8 parallel MPI-processes     *
           *              working on a common directory               *
           ************************************************************
------------------------------------------------------------------------------
                         ORCA SCF GRADIENT CALCULATION
------------------------------------------------------------------------------

 ... reading COSX grid (gridx3)
Gradient of the Kohn-Sham DFT energy:
Kohn-Sham wavefunction type      ... RKS
Hartree-Fock exchange scaling    ...    0.250
Number of operators              ...    1
Number of atoms                  ...    7
Basis set dimensions             ...  117
Integral neglect threshold       ... 2.5e-11
Integral primitive cutoff        ... 2.5e-12
SHARK Integral package           ... ON

Nuc. rep. gradient       (SHARK) ... done (  0.0 sec)
HCore & Overlap gradient (SHARK) ... done (  0.0 sec)
RI-J gradient            (SHARK) ... done (  0.1 sec)
COSX-gradient                    ... done (  0.3 sec)
Exchange-correlation gradient    ... done
Dispersion correction            ... done

------------------
CARTESIAN GRADIENT
------------------

   1   O   :   -0.083375970    0.027268951    0.009161978
   2   C   :   -0.054616442   -0.034281124   -0.085416277
   3   C   :    0.091441728   -0.001696408   -0.013466755
   4   H   :   -0.008135750    0.020670054    0.005135651
   5   H   :    0.040776496    0.032615307    0.075451210
   6   H   :    0.002043459   -0.022301007    0.012295875
   7   H   :    0.011937797   -0.022278306   -0.003176687

Difference to translation invariance:
           :    0.0000713185   -0.0000025328   -0.0000150047

Difference to rotation invariance:
           :   -0.0000808740   -0.0000287880   -0.0001547709

Norm of the cartesian gradient     ...    0.1949866903
RMS gradient                       ...    0.0425495842
MAX gradient                       ...    0.0914417283

-------
TIMINGS
-------

Total SCF gradient time            ...        0.711 sec

One electron gradient       ....       0.009 sec  (  1.3%)
RI-J Coulomb gradient       ....       0.076 sec  ( 10.6%)
COSX gradient               ....       0.326 sec  ( 45.9%)
XC gradient                 ....       0.157 sec  ( 22.0%)

Maximum memory used throughout the entire SCFGRAD-calculation: 35.9 MB

                            ***************************************
                            *     ORCA property calculations      *
                            ***************************************

                                    ---------------------
                                    Active property flags
                                    ---------------------
   (+) Dipole Moment


------------------------------------------------------------------------------
                       ORCA ELECTRIC PROPERTIES CALCULATION
------------------------------------------------------------------------------

Dipole Moment Calculation                       ... on
Quadrupole Moment Calculation                   ... off
Polarizability Calculation                      ... off
GBWName                                         ... ox_gs_C_orca0002.gbw
Electron density                                ... ox_gs_C_orca0002.scfp
The origin for moment calculation is the CENTER OF MASS  = (-0.278860, -0.019642 -0.039319)

-------------
DIPOLE MOMENT
-------------
                                X             Y             Z
Electronic contribution:     -0.38609       1.68493      -0.00985
Nuclear contribution   :      0.59914      -2.64267      -0.05180
                        -----------------------------------------
Total Dipole Moment    :      0.21305      -0.95774      -0.06165
                        -----------------------------------------
Magnitude (a.u.)       :      0.98309
Magnitude (Debye)      :      2.49880



--------------------
Rotational spectrum 
--------------------
 
Rotational constants in cm-1:     0.922356     0.558391     0.400399 
Rotational constants in MHz : 27651.547576 16740.132762 12003.651235 

 Dipole components along the rotational axes: 
x,y,z [a.u.] :    -0.718481    -0.670810    -0.015998 
x,y,z [Debye]:    -1.826234    -1.705062    -0.040664 

 

Timings for individual modules:

Sum of individual times         ...        4.275 sec (=   0.071 min)
GTO integral calculation        ...        0.304 sec (=   0.005 min)   7.1 %
SCF iterations                  ...        3.069 sec (=   0.051 min)  71.8 %
SCF Gradient evaluation         ...        0.902 sec (=   0.015 min)  21.1 %
                             ****ORCA TERMINATED NORMALLY****
TOTAL RUN TIME: 0 days 0 hours 0 minutes 4 seconds 600 msec
