
                                 *****************
                                 * O   R   C   A *
                                 *****************

                                            #,                                       
                                            ###                                      
                                            ####                                     
                                            #####                                    
                                            ######                                   
                                           ########,                                 
                                     ,,################,,,,,                         
                               ,,#################################,,                 
                          ,,##########################################,,             
                       ,#########################################, ''#####,          
                    ,#############################################,,   '####,        
                  ,##################################################,,,,####,       
                ,###########''''           ''''###############################       
              ,#####''   ,,,,##########,,,,          '''####'''          '####       
            ,##' ,,,,###########################,,,                        '##       
           ' ,,###''''                  '''############,,,                           
         ,,##''                                '''############,,,,        ,,,,,,###''
      ,#''                                            '''#######################'''  
     '                                                          ''''####''''         
             ,#######,   #######,   ,#######,      ##                                
            ,#'     '#,  ##    ##  ,#'     '#,    #''#        ######   ,####,        
            ##       ##  ##   ,#'  ##            #'  '#       #        #'  '#        
            ##       ##  #######   ##           ,######,      #####,   #    #        
            '#,     ,#'  ##    ##  '#,     ,#' ,#      #,         ##   #,  ,#        
             '#######'   ##     ##  '#######'  #'      '#     #####' # '####'        



                  #######################################################
                  #                        -***-                        #
                  #          Department of theory and spectroscopy      #
                  #    Directorship and core code : Frank Neese         #
                  #        Max Planck Institute fuer Kohlenforschung    #
                  #                Kaiser Wilhelm Platz 1               #
                  #                 D-45470 Muelheim/Ruhr               #
                  #                      Germany                        #
                  #                                                     #
                  #                  All rights reserved                #
                  #                        -***-                        #
                  #######################################################


                         Program Version 5.0.2 -  RELEASE  -


 With contributions from (in alphabetic order):
   Daniel Aravena         : Magnetic Suceptibility
   Michael Atanasov       : Ab Initio Ligand Field Theory (pilot matlab implementation)
   Alexander A. Auer      : GIAO ZORA, VPT2 properties, NMR spectrum
   Ute Becker             : Parallelization
   Giovanni Bistoni       : ED, misc. LED, open-shell LED, HFLD
   Martin Brehm           : Molecular dynamics
   Dmytro Bykov           : SCF Hessian
   Vijay G. Chilkuri      : MRCI spin determinant printing, contributions to CSF-ICE
   Dipayan Datta          : RHF DLPNO-CCSD density
   Achintya Kumar Dutta   : EOM-CC, STEOM-CC
   Dmitry Ganyushin       : Spin-Orbit,Spin-Spin,Magnetic field MRCI
   Miquel Garcia          : C-PCM and meta-GGA Hessian, CC/C-PCM, Gaussian charge scheme
   Yang Guo               : DLPNO-NEVPT2, F12-NEVPT2, CIM, IAO-localization
   Andreas Hansen         : Spin unrestricted coupled pair/coupled cluster methods
   Benjamin Helmich-Paris : MC-RPA, TRAH-SCF, COSX integrals
   Lee Huntington         : MR-EOM, pCC
   Robert Izsak           : Overlap fitted RIJCOSX, COSX-SCS-MP3, EOM
   Marcus Kettner         : VPT2
   Christian Kollmar      : KDIIS, OOCD, Brueckner-CCSD(T), CCSD density, CASPT2, CASPT2-K
   Simone Kossmann        : Meta GGA functionals, TD-DFT gradient, OOMP2, MP2 Hessian
   Martin Krupicka        : Initial AUTO-CI
   Lucas Lang             : DCDCAS
   Marvin Lechner         : AUTO-CI (C++ implementation), FIC-MRCC
   Dagmar Lenk            : GEPOL surface, SMD
   Dimitrios Liakos       : Extrapolation schemes; Compound Job, initial MDCI parallelization
   Dimitrios Manganas     : Further ROCIS development; embedding schemes
   Dimitrios Pantazis     : SARC Basis sets
   Anastasios Papadopoulos: AUTO-CI, single reference methods and gradients
   Taras Petrenko         : DFT Hessian,TD-DFT gradient, ASA, ECA, R-Raman, ABS, FL, XAS/XES, NRVS
   Peter Pinski           : DLPNO-MP2, DLPNO-MP2 Gradient
   Christoph Reimann      : Effective Core Potentials
   Marius Retegan         : Local ZFS, SOC
   Christoph Riplinger    : Optimizer, TS searches, QM/MM, DLPNO-CCSD(T), (RO)-DLPNO pert. Triples
   Tobias Risthaus        : Range-separated hybrids, TD-DFT gradient, RPA, STAB
   Michael Roemelt        : Original ROCIS implementation
   Masaaki Saitow         : Open-shell DLPNO-CCSD energy and density
   Barbara Sandhoefer     : DKH picture change effects
   Avijit Sen             : IP-ROCIS
   Kantharuban Sivalingam : CASSCF convergence, NEVPT2, FIC-MRCI
   Bernardo de Souza      : ESD, SOC TD-DFT
   Georgi Stoychev        : AutoAux, RI-MP2 NMR, DLPNO-MP2 response
   Willem Van den Heuvel  : Paramagnetic NMR
   Boris Wezisla          : Elementary symmetry handling
   Frank Wennmohs         : Technical directorship


 We gratefully acknowledge several colleagues who have allowed us to
 interface, adapt or use parts of their codes:
   Stefan Grimme, W. Hujo, H. Kruse, P. Pracht,  : VdW corrections, initial TS optimization,
                  C. Bannwarth, S. Ehlert          DFT functionals, gCP, sTDA/sTD-DF
   Ed Valeev, F. Pavosevic, A. Kumar             : LibInt (2-el integral package), F12 methods
   Garnet Chan, S. Sharma, J. Yang, R. Olivares  : DMRG
   Ulf Ekstrom                                   : XCFun DFT Library
   Mihaly Kallay                                 : mrcc  (arbitrary order and MRCC methods)
   Jiri Pittner, Ondrej Demel                    : Mk-CCSD
   Frank Weinhold                                : gennbo (NPA and NBO analysis)
   Christopher J. Cramer and Donald G. Truhlar   : smd solvation model
   Lars Goerigk                                  : TD-DFT with DH, B97 family of functionals
   V. Asgeirsson, H. Jonsson                     : NEB implementation
   FAccTs GmbH                                   : IRC, NEB, NEB-TS, DLPNO-Multilevel, CI-OPT
                                                   MM, QMMM, 2- and 3-layer-ONIOM, Crystal-QMMM,
                                                   LR-CPCM, SF, NACMEs, symmetry and pop. for TD-DFT,
                                                   nearIR, NL-DFT gradient (VV10), updates on ESD,
                                                   ML-optimized integration grids
   S Lehtola, MJT Oliveira, MAL Marques          : LibXC Library
   Liviu Ungur et al                             : ANISO software


 Your calculation uses the libint2 library for the computation of 2-el integrals
 For citations please refer to: http://libint.valeyev.net

 Your ORCA version has been built with support for libXC version: 5.1.0
 For citations please refer to: https://tddft.org/programs/libxc/

 This ORCA versions uses:
   CBLAS   interface :  Fast vector & matrix operations
   LAPACKE interface :  Fast linear algebra routines
   SCALAPACK package :  Parallel linear algebra routines
   Shared memory     :  Shared parallel matrices
   BLAS/LAPACK       :  OpenBLAS 0.3.15  USE64BITINT DYNAMIC_ARCH NO_AFFINITY SkylakeX SINGLE_THREADED
        Core in use  :  SkylakeX
   Copyright (c) 2011-2014, The OpenBLAS Project


Your calculation utilizes the atom-pairwise dispersion correction
with the Becke-Johnson damping scheme (D3BJ)
Cite in your paper:
S.Grimme, S.Ehrlich, L.Goerigk, J Comput Chem, (2011), 32, 1456–1465 
S.Grimme, J.Antony, S.Ehrlich and H.Krieg, J.Chem.Phys., 132, (2010), 154104 
   

================================================================================

----- Orbital basis set information -----
Your calculation utilizes the basis: def2-TZVP
   F. Weigend and R. Ahlrichs, Phys. Chem. Chem. Phys. 7, 3297 (2005).

----- AuxJ basis set information -----
Your calculation utilizes the auxiliary basis: def2/J
   F. Weigend, Phys. Chem. Chem. Phys. 8, 1057 (2006).

================================================================================
                                        WARNINGS
                       Please study these warnings very carefully!
================================================================================


INFO   : the flag for use of the SHARK integral package has been found!

================================================================================
                                       INPUT FILE
================================================================================
NAME = ox_gs_A_orca0004.inp
|  1> ! engrad PBE0 D3BJ def2-TZVP  
|  2> %pal nprocs 8 end
|  3> %maxcore 3000
|  4>  
|  5> *xyz 0 1 
|  6> O   -0.040424630144659385 0.7418364578207732 0.04577021588510371
|  7> C   -0.7124520345170158 -0.47350850018835194 0.025663371655667806
|  8> C   0.733743417467402 -0.3985882404733555 -0.03510265469386762
|  9> H   -1.2802060373298882 -0.6878762176566079 0.8468004725933941
| 10> H   -1.249016756146771 -0.6552181463910056 -0.919720547167877
| 11> H   1.2520934633312426 -0.7390393971025208 -0.9410084861382679
| 12> H   1.2466871441736616 -0.7083846734610809 0.9119118844166996
| 13> *
| 14> 
| 15>                          ****END OF INPUT****
================================================================================

                     *******************************
                     * Energy+Gradient Calculation *
                     *******************************

---------------------------------
CARTESIAN COORDINATES (ANGSTROEM)
---------------------------------
  O     -0.040425    0.741836    0.045770
  C     -0.712452   -0.473509    0.025663
  C      0.733743   -0.398588   -0.035103
  H     -1.280206   -0.687876    0.846800
  H     -1.249017   -0.655218   -0.919721
  H      1.252093   -0.739039   -0.941008
  H      1.246687   -0.708385    0.911912

----------------------------
CARTESIAN COORDINATES (A.U.)
----------------------------
  NO LB      ZA    FRAG     MASS         X           Y           Z
   0 O     8.0000    0    15.999   -0.076391    1.401868    0.086493
   1 C     6.0000    0    12.011   -1.346339   -0.894801    0.048497
   2 C     6.0000    0    12.011    1.386574   -0.753223   -0.066334
   3 H     1.0000    0     1.008   -2.419239   -1.299898    1.600221
   4 H     1.0000    0     1.008   -2.360300   -1.238183   -1.738020
   5 H     1.0000    0     1.008    2.366114   -1.396582   -1.778248
   6 H     1.0000    0     1.008    2.355897   -1.338653    1.723264

--------------------------------
INTERNAL COORDINATES (ANGSTROEM)
--------------------------------
 O      0   0   0     0.000000000000     0.00000000     0.00000000
 C      1   0   0     1.388916298547     0.00000000     0.00000000
 C      1   2   0     1.380740772056    63.10923857     0.00000000
 H      2   1   3     1.021060362828   116.17466576   118.74893226
 H      2   1   3     1.102121068663   113.09443377   251.23126093
 H      3   1   2     1.097842946665   124.69436665   106.03822426
 H      3   1   2     1.120679094989   115.81455937   256.40211667

---------------------------
INTERNAL COORDINATES (A.U.)
---------------------------
 O      0   0   0     0.000000000000     0.00000000     0.00000000
 C      1   0   0     2.624671427194     0.00000000     0.00000000
 C      1   2   0     2.609221921125    63.10923857     0.00000000
 H      2   1   3     1.929524451948   116.17466576   118.74893226
 H      2   1   3     2.082706986198   113.09443377   251.23126093
 H      3   1   2     2.074622507254   124.69436665   106.03822426
 H      3   1   2     2.117776573540   115.81455937   256.40211667

---------------------
BASIS SET INFORMATION
---------------------
There are 3 groups of distinct atoms

 Group   1 Type O   : 11s6p2d1f contracted to 5s3p2d1f pattern {62111/411/11/1}
 Group   2 Type C   : 11s6p2d1f contracted to 5s3p2d1f pattern {62111/411/11/1}
 Group   3 Type H   : 5s1p contracted to 3s1p pattern {311/1}

Atom   0O    basis set group =>   1
Atom   1C    basis set group =>   2
Atom   2C    basis set group =>   2
Atom   3H    basis set group =>   3
Atom   4H    basis set group =>   3
Atom   5H    basis set group =>   3
Atom   6H    basis set group =>   3
---------------------------------
AUXILIARY/J BASIS SET INFORMATION
---------------------------------
There are 3 groups of distinct atoms

 Group   1 Type O   : 12s5p4d2f1g contracted to 6s4p3d1f1g pattern {711111/2111/211/2/1}
 Group   2 Type C   : 12s5p4d2f1g contracted to 6s4p3d1f1g pattern {711111/2111/211/2/1}
 Group   3 Type H   : 5s2p1d contracted to 3s1p1d pattern {311/2/1}

Atom   0O    basis set group =>   1
Atom   1C    basis set group =>   2
Atom   2C    basis set group =>   2
Atom   3H    basis set group =>   3
Atom   4H    basis set group =>   3
Atom   5H    basis set group =>   3
Atom   6H    basis set group =>   3


           ************************************************************
           *        Program running with 8 parallel MPI-processes     *
           *              working on a common directory               *
           ************************************************************
------------------------------------------------------------------------------
                           ORCA GTO INTEGRAL CALCULATION
                           -- RI-GTO INTEGRALS CHOSEN --
------------------------------------------------------------------------------
------------------------------------------------------------------------------
                   ___                                                        
                  /   \      - P O W E R E D   B Y -                         
                 /     \                                                     
                 |  |  |   _    _      __       _____    __    __             
                 |  |  |  | |  | |    /  \     |  _  \  |  |  /  |          
                  \  \/   | |  | |   /    \    | | | |  |  | /  /          
                 / \  \   | |__| |  /  /\  \   | |_| |  |  |/  /          
                |  |  |   |  __  | /  /__\  \  |    /   |      \           
                |  |  |   | |  | | |   __   |  |    \   |  |\   \          
                \     /   | |  | | |  |  |  |  | |\  \  |  | \   \       
                 \___/    |_|  |_| |__|  |__|  |_| \__\ |__|  \__/        
                                                                              
                      - O R C A' S   B I G   F R I E N D -                    
                                      &                                       
                       - I N T E G R A L  F E E D E R -                       
                                                                              
 v1 FN, 2020, v2 2021                                                         
------------------------------------------------------------------------------


Reading SHARK input file ox_gs_A_orca0004.SHARKINP.tmp ... ok
----------------------
SHARK INTEGRAL PACKAGE
----------------------

Number of atoms                             ...      7
Number of basis functions                   ...    117
Number of shells                            ...     49
Maximum angular momentum                    ...      3
Integral batch strategy                     ... SHARK/LIBINT Hybrid
RI-J (if used) integral strategy            ... SPLIT-RIJ (Revised 2003 algorithm where possible)
Printlevel                                  ...      1
Contraction scheme used                     ... SEGMENTED contraction
Coulomb Range Separation                    ... NOT USED
Exchange Range Separation                   ... NOT USED
Finite Nucleus Model                        ... NOT USED
Auxiliary Coulomb fitting basis             ... AVAILABLE
   # of basis functions in Aux-J            ...    191
   # of shells in Aux-J                     ...     65
   Maximum angular momentum in Aux-J        ...      4
Auxiliary J/K fitting basis                 ... NOT available
Auxiliary Correlation fitting basis         ... NOT available
Auxiliary 'external' fitting basis          ... NOT available
Integral threshold                          ...     2.500000e-11
Primitive cut-off                           ...     2.500000e-12
Primitive pair pre-selection threshold      ...     2.500000e-12

Calculating pre-screening integrals         ... done (  0.1 sec) Dimension = 49
Organizing shell pair data                  ... done (  0.0 sec)
Shell pair information
Total number of shell pairs                 ...      1225
Shell pairs after pre-screening             ...      1221
Total number of primitive shell pairs       ...      3648
Primitive shell pairs kept                  ...      3160
          la=0 lb=0:    374 shell pairs
          la=1 lb=0:    351 shell pairs
          la=1 lb=1:     91 shell pairs
          la=2 lb=0:    162 shell pairs
          la=2 lb=1:     78 shell pairs
          la=2 lb=2:     21 shell pairs
          la=3 lb=0:     81 shell pairs
          la=3 lb=1:     39 shell pairs
          la=3 lb=2:     18 shell pairs
          la=3 lb=3:      6 shell pairs

Calculating one electron integrals          ... done (  0.0 sec)
Calculating RI/J V-Matrix + Cholesky decomp.... done (  0.2 sec)
Calculating Nuclear repulsion               ... done (  0.0 sec) ENN=     76.691855267740 Eh

SHARK setup successfully completed in   0.8 seconds

Maximum memory used throughout the entire GTOINT-calculation: 14.9 MB


           ************************************************************
           *        Program running with 8 parallel MPI-processes     *
           *              working on a common directory               *
           ************************************************************
-------------------------------------------------------------------------------
                                 ORCA SCF
-------------------------------------------------------------------------------

------------
SCF SETTINGS
------------
Hamiltonian:
 Density Functional     Method          .... DFT(GTOs)
 Exchange Functional    Exchange        .... PBE
   PBE kappa parameter   XKappa         ....  0.804000
   PBE mue parameter    XMuePBE         ....  0.219520
 Correlation Functional Correlation     .... PBE
   PBE beta parameter  CBetaPBE         ....  0.066725
 LDA part of GGA corr.  LDAOpt          .... PW91-LDA
 Gradients option       PostSCFGGA      .... off
 Hybrid DFT is turned on
   Fraction HF Exchange ScalHFX         ....  0.250000
   Scaling of DF-GGA-X  ScalDFX         ....  0.750000
   Scaling of DF-GGA-C  ScalDFC         ....  1.000000
   Scaling of DF-LDA-C  ScalLDAC        ....  1.000000
   Perturbative correction              ....  0.000000
   Density functional embedding theory  .... OFF
   NL short-range parameter             ....  6.900000
 RI-approximation to the Coulomb term is turned on
   Number of AuxJ basis functions       .... 191
   RIJ-COSX (HFX calculated with COS-X)).... on


General Settings:
 Integral files         IntName         .... ox_gs_A_orca0004
 Hartree-Fock type      HFTyp           .... RHF
 Total Charge           Charge          ....    0
 Multiplicity           Mult            ....    1
 Number of Electrons    NEL             ....   24
 Basis Dimension        Dim             ....  117
 Nuclear Repulsion      ENuc            ....     76.6918552677 Eh

Convergence Acceleration:
 DIIS                   CNVDIIS         .... on
   Start iteration      DIISMaxIt       ....    12
   Startup error        DIISStart       ....  0.200000
   # of expansion vecs  DIISMaxEq       ....     5
   Bias factor          DIISBfac        ....   1.050
   Max. coefficient     DIISMaxC        ....  10.000
 Trust-Rad. Augm. Hess. CNVTRAH         .... auto
   Auto Start mean grad. ratio tolernc. ....  1.125000
   Auto Start start iteration           ....    20
   Auto Start num. interpolation iter.  ....    10
   Max. Number of Micro iterations      ....    16
   Max. Number of Macro iterations      .... Maxiter - #DIIS iter
   Number of Davidson start vectors     ....     2
   Converg. threshold I  (grad. norm)   ....   1.000e-05
   Converg. threshold II (energy diff.) ....   1.000e-08
   Grad. Scal. Fac. for Micro threshold ....   0.100
   Minimum threshold for Micro iter.    ....   0.010
   NR start threshold (gradient norm)   ....   0.001
   Initial trust radius                 ....   0.400
   Minimum AH scaling param. (alpha)    ....   1.000
   Maximum AH scaling param. (alpha)    .... 1000.000
   Orbital update algorithm             .... Taylor
   White noise on init. David. guess    .... on
   Maximum white noise                  ....   0.010
   Quad. conv. algorithm                .... NR
 SOSCF                  CNVSOSCF        .... on
   Start iteration      SOSCFMaxIt      ....   150
   Startup grad/error   SOSCFStart      ....  0.003300
 Level Shifting         CNVShift        .... on
   Level shift para.    LevelShift      ....    0.2500
   Turn off err/grad.   ShiftErr        ....    0.0010
 Zerner damping         CNVZerner       .... off
 Static damping         CNVDamp         .... on
   Fraction old density DampFac         ....    0.7000
   Max. Damping (<1)    DampMax         ....    0.9800
   Min. Damping (>=0)   DampMin         ....    0.0000
   Turn off err/grad.   DampErr         ....    0.1000
 Fernandez-Rico         CNVRico         .... off

SCF Procedure:
 Maximum # iterations   MaxIter         ....   125
 SCF integral mode      SCFMode         .... Direct
   Integral package                     .... SHARK and LIBINT hybrid scheme
 Reset frequency        DirectResetFreq ....    20
 Integral Threshold     Thresh          ....  2.500e-11 Eh
 Primitive CutOff       TCut            ....  2.500e-12 Eh

Convergence Tolerance:
 Convergence Check Mode ConvCheckMode   .... Total+1el-Energy
 Convergence forced     ConvForced      .... 0
 Energy Change          TolE            ....  1.000e-08 Eh
 1-El. energy change                    ....  1.000e-05 Eh
 Orbital Gradient       TolG            ....  1.000e-05
 Orbital Rotation angle TolX            ....  1.000e-05
 DIIS Error             TolErr          ....  5.000e-07


Diagonalization of the overlap matrix:
Smallest eigenvalue                        ... 3.401e-04
Time for diagonalization                   ...    0.158 sec
Threshold for overlap eigenvalues          ... 1.000e-08
Number of eigenvalues below threshold      ... 0
Time for construction of square roots      ...    0.015 sec
Total time needed                          ...    0.174 sec

Time for model grid setup =    0.224 sec

------------------------------
INITIAL GUESS: MODEL POTENTIAL
------------------------------
Loading Hartree-Fock densities                     ... done
Calculating cut-offs                               ... done
Initializing the effective Hamiltonian             ... done
Setting up the integral package (SHARK)            ... done
Starting the Coulomb interaction                   ... done (   0.2 sec)
Reading the grid                                   ... done
Mapping shells                                     ... done
Starting the XC term evaluation                    ... done (   0.0 sec)
  promolecular density results
     # of electrons  =     23.996801205
     EX              =    -19.572854649
     EC              =     -0.786178064
     EX+EC           =    -20.359032712
Transforming the Hamiltonian                       ... done (   0.0 sec)
Diagonalizing the Hamiltonian                      ... done (   0.0 sec)
Back transforming the eigenvectors                 ... done (   0.0 sec)
Now organizing SCF variables                       ... done
                      ------------------
                      INITIAL GUESS DONE (   0.5 sec)
                      ------------------
-------------------
DFT GRID GENERATION
-------------------

General Integration Accuracy     IntAcc      ... 4.388
Radial Grid Type                 RadialGrid  ... OptM3 with GC (2021)
Angular Grid (max. ang.)         AngularGrid ... 4 (Lebedev-302)
Angular grid pruning method      GridPruning ... 4 (adaptive)
Weight generation scheme         WeightScheme... Becke
Basis function cutoff            BFCut       ... 1.0000e-11
Integration weight cutoff        WCut        ... 1.0000e-14
Angular grids for H and He will be reduced by one unit
Partially contracted basis set               ... off
Rotationally invariant grid construction     ... off

Total number of grid points                  ...    31299
Total number of batches                      ...      492
Average number of points per batch           ...       63
Average number of grid points per atom       ...     4471
Time for grid setup =    0.271 sec

--------------------
COSX GRID GENERATION
--------------------

GRIDX 1
-------
General Integration Accuracy     IntAcc      ... 3.816
Radial Grid Type                 RadialGrid  ... OptM3 with GC (2021)
Angular Grid (max. ang.)         AngularGrid ... 1 (Lebedev-50)
Angular grid pruning method      GridPruning ... 4 (adaptive)
Weight generation scheme         WeightScheme... Becke
Basis function cutoff            BFCut       ... 1.0000e-11
Integration weight cutoff        WCut        ... 1.0000e-14
Angular grids for H and He will be reduced by one unit
Partially contracted basis set               ... on
Rotationally invariant grid construction     ... off

Total number of grid points                  ...     4036
Total number of batches                      ...       68
Average number of points per batch           ...       59
Average number of grid points per atom       ...      577
UseSFitting                                  ... on

GRIDX 2
-------
General Integration Accuracy     IntAcc      ... 4.020
Radial Grid Type                 RadialGrid  ... OptM3 with GC (2021)
Angular Grid (max. ang.)         AngularGrid ... 2 (Lebedev-110)
Angular grid pruning method      GridPruning ... 4 (adaptive)
Weight generation scheme         WeightScheme... Becke
Basis function cutoff            BFCut       ... 1.0000e-11
Integration weight cutoff        WCut        ... 1.0000e-14
Angular grids for H and He will be reduced by one unit
Partially contracted basis set               ... on
Rotationally invariant grid construction     ... off

Total number of grid points                  ...     8713
Total number of batches                      ...      141
Average number of points per batch           ...       61
Average number of grid points per atom       ...     1245
UseSFitting                                  ... on

GRIDX 3
-------
General Integration Accuracy     IntAcc      ... 4.338
Radial Grid Type                 RadialGrid  ... OptM3 with GC (2021)
Angular Grid (max. ang.)         AngularGrid ... 3 (Lebedev-194)
Angular grid pruning method      GridPruning ... 4 (adaptive)
Weight generation scheme         WeightScheme... Becke
Basis function cutoff            BFCut       ... 1.0000e-11
Integration weight cutoff        WCut        ... 1.0000e-14
Angular grids for H and He will be reduced by one unit
Partially contracted basis set               ... on
Rotationally invariant grid construction     ... off

Total number of grid points                  ...    19235
Total number of batches                      ...      303
Average number of points per batch           ...       63
Average number of grid points per atom       ...     2748
UseSFitting                                  ... on

Time for X-Grid setup             =    0.138 sec

--------------
SCF ITERATIONS
--------------
ITER       Energy         Delta-E        Max-DP      RMS-DP      [F,P]     Damp
               ***  Starting incremental Fock matrix formation  ***
  0   -153.5987416861   0.000000000000 0.03304273  0.00115707  0.1698859 0.7000
  1   -153.6286677514  -0.029926065347 0.01843678  0.00086130  0.0736782 0.7000
                               ***Turning on DIIS***
  2   -153.6411718148  -0.012504063441 0.02778793  0.00147292  0.0338334 0.0000
  3   -153.6609350786  -0.019763263797 0.01355742  0.00064139  0.0393933 0.0000
  4   -153.6649909112  -0.004055832587 0.00322059  0.00017848  0.0070723 0.0000
  5   -153.6651462786  -0.000155367368 0.00149428  0.00006638  0.0039642 0.0000
                      *** Initiating the SOSCF procedure ***
                           *** Shutting down DIIS ***
                      *** Re-Reading the Fockian *** 
                      *** Removing any level shift *** 
ITER      Energy       Delta-E        Grad      Rot      Max-DP    RMS-DP
  6   -153.66516914  -0.0000228634  0.000154  0.000154  0.000944  0.000032
               *** Restarting incremental Fock matrix formation ***
  7   -153.66515923   0.0000099165  0.000048  0.000072  0.000097  0.000004
  8   -153.66515921   0.0000000164  0.000070  0.000045  0.000062  0.000002
  9   -153.66515926  -0.0000000499  0.000007  0.000012  0.000015  0.000001
 10   -153.66515926   0.0000000001  0.000009  0.000007  0.000009  0.000000
                 **** Energy Check signals convergence ****
              ***Rediagonalizing the Fockian in SOSCF/NRSCF***

               *****************************************************
               *                     SUCCESS                       *
               *           SCF CONVERGED AFTER  11 CYCLES          *
               *****************************************************

Old exchange energy                            =     -5.008965641 Eh
New exchange energy                            =     -5.008953793 Eh
Exchange energy change after final integration =      0.000011848 Eh
Total energy after final integration           =   -153.665147413 Eh
Final COS-X integration done in                =     0.451 sec

----------------
TOTAL SCF ENERGY
----------------

Total Energy       :         -153.66514741 Eh           -4181.44124 eV

Components:
Nuclear Repulsion  :           76.69185527 Eh            2086.89148 eV
Electronic Energy  :         -230.35700268 Eh           -6268.33272 eV
One Electron Energy:         -359.92363538 Eh           -9794.02004 eV
Two Electron Energy:          129.56663270 Eh            3525.68732 eV
Max COSX asymmetry :            0.00000205 Eh               0.00006 eV

Virial components:
Potential Energy   :         -306.80302565 Eh           -8348.53476 eV
Kinetic Energy     :          153.13787824 Eh            4167.09352 eV
Virial Ratio       :            2.00344310


DFT components:
N(Alpha)           :       12.000003240689 electrons
N(Beta)            :       12.000003240689 electrons
N(Total)           :       24.000006481377 electrons
E(X)               :      -14.991354620684 Eh       
E(C)               :       -0.794026630967 Eh       
E(XC)              :      -15.785381251651 Eh       
DFET-embed. en.    :        0.000000000000 Eh       

---------------
SCF CONVERGENCE
---------------

  Last Energy change         ...   -1.9148e-09  Tolerance :   1.0000e-08
  Last MAX-Density change    ...    9.9920e-16  Tolerance :   1.0000e-07
  Last RMS-Density change    ...    2.0631e-17  Tolerance :   5.0000e-09
  Last Orbital Gradient      ...    1.9632e-07  Tolerance :   1.0000e-05
  Last Orbital Rotation      ...    3.3460e-07  Tolerance :   1.0000e-05

             **** THE GBW FILE WAS UPDATED (ox_gs_A_orca0004.gbw) ****
             **** DENSITY ox_gs_A_orca0004.scfp WAS UPDATED ****
             **** ENERGY FILE WAS UPDATED (ox_gs_A_orca0004.en.tmp) ****
             **** THE GBW FILE WAS UPDATED (ox_gs_A_orca0004.gbw) ****
             **** DENSITY ox_gs_A_orca0004.scfp WAS UPDATED ****
----------------
ORBITAL ENERGIES
----------------

  NO   OCC          E(Eh)            E(eV) 
   0   2.0000     -19.227648      -523.2109 
   1   2.0000     -10.278321      -279.6873 
   2   2.0000     -10.264046      -279.2989 
   3   2.0000      -1.136566       -30.9275 
   4   2.0000      -0.699501       -19.0344 
   5   2.0000      -0.660927       -17.9847 
   6   2.0000      -0.537578       -14.6282 
   7   2.0000      -0.511774       -13.9261 
   8   2.0000      -0.432880       -11.7793 
   9   2.0000      -0.390527       -10.6268 
  10   2.0000      -0.328248        -8.9321 
  11   2.0000      -0.293151        -7.9771 
  12   0.0000       0.063046         1.7156 
  13   0.0000       0.083263         2.2657 
  14   0.0000       0.089033         2.4227 
  15   0.0000       0.101534         2.7629 
  16   0.0000       0.112352         3.0573 
  17   0.0000       0.156725         4.2647 
  18   0.0000       0.192576         5.2403 
  19   0.0000       0.221823         6.0361 
  20   0.0000       0.268982         7.3194 
  21   0.0000       0.277294         7.5456 
  22   0.0000       0.295955         8.0533 
  23   0.0000       0.352789         9.5999 
  24   0.0000       0.359220         9.7749 
  25   0.0000       0.399712        10.8767 
  26   0.0000       0.404854        11.0166 
  27   0.0000       0.445846        12.1321 
  28   0.0000       0.456826        12.4309 
  29   0.0000       0.460301        12.5254 
  30   0.0000       0.499735        13.5985 
  31   0.0000       0.523645        14.2491 
  32   0.0000       0.539921        14.6920 
  33   0.0000       0.703590        19.1456 
  34   0.0000       0.714419        19.4403 
  35   0.0000       0.725355        19.7379 
  36   0.0000       0.829321        22.5670 
  37   0.0000       0.876450        23.8494 
  38   0.0000       0.898541        24.4506 
  39   0.0000       0.952823        25.9276 
  40   0.0000       1.025400        27.9026 
  41   0.0000       1.039986        28.2995 
  42   0.0000       1.075859        29.2756 
  43   0.0000       1.086021        29.5521 
  44   0.0000       1.158698        31.5298 
  45   0.0000       1.365538        37.1582 
  46   0.0000       1.449207        39.4349 
  47   0.0000       1.495500        40.6946 
  48   0.0000       1.521342        41.3978 
  49   0.0000       1.527352        41.5614 
  50   0.0000       1.574309        42.8391 
  51   0.0000       1.619028        44.0560 
  52   0.0000       1.670645        45.4606 
  53   0.0000       1.704931        46.3935 
  54   0.0000       1.792742        48.7830 
  55   0.0000       1.794499        48.8308 
  56   0.0000       1.833107        49.8814 
  57   0.0000       1.928194        52.4688 
  58   0.0000       1.961807        53.3835 
  59   0.0000       1.989135        54.1271 
  60   0.0000       2.106153        57.3113 
  61   0.0000       2.162673        58.8493 
  62   0.0000       2.169553        59.0365 
  63   0.0000       2.282259        62.1034 
  64   0.0000       2.293718        62.4152 
  65   0.0000       2.416864        65.7662 
  66   0.0000       2.466530        67.1177 
  67   0.0000       2.530046        68.8461 
  68   0.0000       2.550251        69.3958 
  69   0.0000       2.600466        70.7623 
  70   0.0000       2.613207        71.1090 
  71   0.0000       2.666925        72.5707 
  72   0.0000       2.698978        73.4429 
  73   0.0000       2.724569        74.1393 
  74   0.0000       2.772040        75.4310 
  75   0.0000       2.834923        77.1422 
  76   0.0000       2.857197        77.7483 
  77   0.0000       2.951186        80.3059 
  78   0.0000       3.002729        81.7084 
  79   0.0000       3.024241        82.2938 
  80   0.0000       3.052561        83.0644 
  81   0.0000       3.078329        83.7656 
  82   0.0000       3.152057        85.7718 
  83   0.0000       3.258444        88.6668 
  84   0.0000       3.332643        90.6858 
  85   0.0000       3.363629        91.5290 
  86   0.0000       3.410202        92.7963 
  87   0.0000       3.439668        93.5981 
  88   0.0000       3.592282        97.7510 
  89   0.0000       3.647111        99.2429 
  90   0.0000       3.664176        99.7073 
  91   0.0000       3.733016       101.5805 
  92   0.0000       3.925236       106.8111 
  93   0.0000       4.008442       109.0753 
  94   0.0000       4.108164       111.7888 
  95   0.0000       4.190665       114.0338 
  96   0.0000       4.248241       115.6005 
  97   0.0000       4.337080       118.0179 
  98   0.0000       4.405317       119.8748 
  99   0.0000       4.582703       124.7017 
 100   0.0000       4.728221       128.6614 
 101   0.0000       4.843633       131.8020 
 102   0.0000       5.329687       145.0282 
 103   0.0000       5.499168       149.6400 
 104   0.0000       5.793901       157.6601 
 105   0.0000       5.803078       157.9098 
 106   0.0000       5.853326       159.2771 
 107   0.0000       5.976664       162.6333 
 108   0.0000       6.117643       166.4695 
 109   0.0000       6.625552       180.2904 
 110   0.0000       6.658037       181.1744 
 111   0.0000       6.814032       185.4192 
 112   0.0000       6.977995       189.8809 
 113   0.0000       7.178095       195.3259 
 114   0.0000      22.360768       608.4674 
 115   0.0000      22.580554       614.4481 
 116   0.0000      43.897174      1194.5028 

                    ********************************
                    * MULLIKEN POPULATION ANALYSIS *
                    ********************************

-----------------------
MULLIKEN ATOMIC CHARGES
-----------------------
   0 O :   -0.305072
   1 C :   -0.074425
   2 C :   -0.055054
   3 H :    0.120805
   4 H :    0.103305
   5 H :    0.111379
   6 H :    0.099062
Sum of atomic charges:    0.0000000

--------------------------------
MULLIKEN REDUCED ORBITAL CHARGES
--------------------------------
  0 O s       :     3.845209  s :     3.845209
      pz      :     1.816159  p :     4.409547
      px      :     1.305059
      py      :     1.288328
      dz2     :     0.006060  d :     0.047824
      dxz     :     0.003134
      dyz     :     0.007702
      dx2y2   :     0.013957
      dxy     :     0.016972
      f0      :     0.000306  f :     0.002492
      f+1     :     0.000224
      f-1     :     0.000495
      f+2     :     0.000100
      f-2     :     0.000250
      f+3     :     0.000392
      f-3     :     0.000725
  1 C s       :     3.207284  s :     3.207284
      pz      :     1.058128  p :     2.738325
      px      :     0.906339
      py      :     0.773857
      dz2     :     0.005099  d :     0.116279
      dxz     :     0.027150
      dyz     :     0.032793
      dx2y2   :     0.030946
      dxy     :     0.020292
      f0      :     0.001698  f :     0.012537
      f+1     :     0.001365
      f-1     :     0.000656
      f+2     :     0.001557
      f-2     :     0.001781
      f+3     :     0.002271
      f-3     :     0.003210
  2 C s       :     3.210539  s :     3.210539
      pz      :     1.024467  p :     2.715137
      px      :     0.904917
      py      :     0.785754
      dz2     :     0.005503  d :     0.116893
      dxz     :     0.027102
      dyz     :     0.032294
      dx2y2   :     0.029548
      dxy     :     0.022445
      f0      :     0.001594  f :     0.012485
      f+1     :     0.001377
      f-1     :     0.000811
      f+2     :     0.001079
      f-2     :     0.002121
      f+3     :     0.002351
      f-3     :     0.003152
  3 H s       :     0.856208  s :     0.856208
      pz      :     0.010373  p :     0.022987
      px      :     0.007789
      py      :     0.004825
  4 H s       :     0.876024  s :     0.876024
      pz      :     0.010743  p :     0.020670
      px      :     0.006158
      py      :     0.003769
  5 H s       :     0.867656  s :     0.867656
      pz      :     0.010240  p :     0.020965
      px      :     0.006441
      py      :     0.004285
  6 H s       :     0.880585  s :     0.880585
      pz      :     0.010390  p :     0.020354
      px      :     0.005907
      py      :     0.004056


                     *******************************
                     * LOEWDIN POPULATION ANALYSIS *
                     *******************************

----------------------
LOEWDIN ATOMIC CHARGES
----------------------
   0 O :    0.181378
   1 C :   -0.311110
   2 C :   -0.330357
   3 H :    0.097787
   4 H :    0.119469
   5 H :    0.119090
   6 H :    0.123743

-------------------------------
LOEWDIN REDUCED ORBITAL CHARGES
-------------------------------
  0 O s       :     3.338315  s :     3.338315
      pz      :     1.684757  p :     4.364630
      px      :     1.285543
      py      :     1.394331
      dz2     :     0.012147  d :     0.107465
      dxz     :     0.009788
      dyz     :     0.017741
      dx2y2   :     0.039474
      dxy     :     0.028314
      f0      :     0.000796  f :     0.008212
      f+1     :     0.000309
      f-1     :     0.000986
      f+2     :     0.000203
      f-2     :     0.001177
      f+3     :     0.001397
      f-3     :     0.003345
  1 C s       :     2.801203  s :     2.801203
      pz      :     1.052867  p :     2.925310
      px      :     1.030141
      py      :     0.842301
      dz2     :     0.053461  d :     0.503272
      dxz     :     0.143029
      dyz     :     0.092045
      dx2y2   :     0.114427
      dxy     :     0.100310
      f0      :     0.011016  f :     0.081325
      f+1     :     0.006379
      f-1     :     0.006328
      f+2     :     0.010313
      f-2     :     0.007607
      f+3     :     0.015549
      f-3     :     0.024133
  2 C s       :     2.812196  s :     2.812196
      pz      :     1.040066  p :     2.926151
      px      :     1.035386
      py      :     0.850699
      dz2     :     0.052865  d :     0.510691
      dxz     :     0.136523
      dyz     :     0.103109
      dx2y2   :     0.109442
      dxy     :     0.108751
      f0      :     0.011105  f :     0.081319
      f+1     :     0.006213
      f-1     :     0.006084
      f+2     :     0.007160
      f-2     :     0.009959
      f+3     :     0.017115
      f-3     :     0.023682
  3 H s       :     0.829724  s :     0.829724
      pz      :     0.034275  p :     0.072489
      px      :     0.022794
      py      :     0.015420
  4 H s       :     0.822273  s :     0.822273
      pz      :     0.031180  p :     0.058258
      px      :     0.016209
      py      :     0.010868
  5 H s       :     0.820672  s :     0.820672
      pz      :     0.030799  p :     0.060239
      px      :     0.016804
      py      :     0.012635
  6 H s       :     0.819996  s :     0.819996
      pz      :     0.029919  p :     0.056261
      px      :     0.014861
      py      :     0.011481


                      *****************************
                      * MAYER POPULATION ANALYSIS *
                      *****************************

  NA   - Mulliken gross atomic population
  ZA   - Total nuclear charge
  QA   - Mulliken gross atomic charge
  VA   - Mayer's total valence
  BVA  - Mayer's bonded valence
  FA   - Mayer's free valence

  ATOM       NA         ZA         QA         VA         BVA        FA
  0 O      8.3051     8.0000    -0.3051     2.0183     2.0183     0.0000
  1 C      6.0744     6.0000    -0.0744     3.9710     3.9710     0.0000
  2 C      6.0551     6.0000    -0.0551     3.9787     3.9787     0.0000
  3 H      0.8792     1.0000     0.1208     0.9614     0.9614    -0.0000
  4 H      0.8967     1.0000     0.1033     0.9643     0.9643     0.0000
  5 H      0.8886     1.0000     0.1114     0.9569     0.9569     0.0000
  6 H      0.9009     1.0000     0.0991     0.9610     0.9610     0.0000

  Mayer bond orders larger than 0.100000
B(  0-O ,  1-C ) :   0.9721 B(  0-O ,  2-C ) :   1.0150 B(  1-C ,  2-C ) :   1.0617 
B(  1-C ,  3-H ) :   0.9620 B(  1-C ,  4-H ) :   0.9594 B(  2-C ,  5-H ) :   0.9411 
B(  2-C ,  6-H ) :   0.9505 

-------
TIMINGS
-------

Total SCF time: 0 days 0 hours 0 min 9 sec 

Total time                  ....       9.523 sec
Sum of individual times     ....       7.922 sec  ( 83.2%)

Fock matrix formation       ....       6.851 sec  ( 71.9%)
  Split-RI-J                ....       1.275 sec  ( 18.6% of F)
  Chain of spheres X        ....       3.877 sec  ( 56.6% of F)
  XC integration            ....       1.227 sec  ( 17.9% of F)
    Basis function eval.    ....       0.246 sec  ( 20.0% of XC)
    Density eval.           ....       0.214 sec  ( 17.4% of XC)
    XC-Functional eval.     ....       0.050 sec  (  4.0% of XC)
    XC-Potential eval.      ....       0.394 sec  ( 32.1% of XC)
Diagonalization             ....       0.044 sec  (  0.5%)
Density matrix formation    ....       0.006 sec  (  0.1%)
Population analysis         ....       0.014 sec  (  0.1%)
Initial guess               ....       0.313 sec  (  3.3%)
Orbital Transformation      ....       0.000 sec  (  0.0%)
Orbital Orthonormalization  ....       0.000 sec  (  0.0%)
DIIS solution               ....       0.040 sec  (  0.4%)
SOSCF solution              ....       0.023 sec  (  0.2%)
Grid generation             ....       0.633 sec  (  6.6%)

Maximum memory used throughout the entire SCF-calculation: 61.1 MB


-------------------------------------------------------------------------------
                          DFT DISPERSION CORRECTION                            
                                                                               
                              DFTD3 V3.1  Rev 1                                
                          USING Becke-Johnson damping                          
-------------------------------------------------------------------------------
The PBE0 functional is recognized
Active option DFTDOPT                   ...         4   

molecular C6(AA) [au] = 350.753799 


            DFT-D V3
 parameters
 s6 scaling factor         :     1.0000 
 a1 scaling factor         :     0.4145 
 s8 scaling factor         :     1.2177 
 a2 scaling factor         :     4.8593 
 ad hoc parameters k1-k3   :    16.0000     1.3333    -4.0000 

 Edisp/kcal,au: -1.512781015532  -0.002410769744 
 E6   /kcal   :  -0.992191551 
 E8   /kcal   :  -0.520589465 
 % E8         :  34.412744433 

-------------------------   ----------------
Dispersion correction           -0.002410770
-------------------------   ----------------


-------------------------   --------------------
FINAL SINGLE POINT ENERGY      -153.667558182624
-------------------------   --------------------



           ************************************************************
           *        Program running with 8 parallel MPI-processes     *
           *              working on a common directory               *
           ************************************************************
------------------------------------------------------------------------------
                         ORCA SCF GRADIENT CALCULATION
------------------------------------------------------------------------------

 ... reading COSX grid (gridx3)
Gradient of the Kohn-Sham DFT energy:
Kohn-Sham wavefunction type      ... RKS
Hartree-Fock exchange scaling    ...    0.250
Number of operators              ...    1
Number of atoms                  ...    7
Basis set dimensions             ...  117
Integral neglect threshold       ... 2.5e-11
Integral primitive cutoff        ... 2.5e-12
SHARK Integral package           ... ON

Nuc. rep. gradient       (SHARK) ... done (  0.0 sec)
HCore & Overlap gradient (SHARK) ... done (  0.1 sec)
RI-J gradient            (SHARK) ... done (  0.9 sec)
COSX-gradient                    ... done (  1.2 sec)
Exchange-correlation gradient    ... done
Dispersion correction            ... done

------------------
CARTESIAN GRADIENT
------------------

   1   O   :   -0.009399717   -0.031180593    0.006861739
   2   C   :    0.002286916   -0.000897397    0.061875109
   3   C   :   -0.016756923    0.041341316   -0.031188194
   4   H   :    0.020952978    0.014760984   -0.047539368
   5   H   :   -0.003750578    0.000574979   -0.005746539
   6   H   :    0.003754730   -0.014468442   -0.000569425
   7   H   :    0.002976900   -0.010327453    0.016447601

Difference to translation invariance:
           :    0.0000643060   -0.0001966055    0.0001409230

Difference to rotation invariance:
           :    0.0003638794    0.0000102110   -0.0002954816

Norm of the cartesian gradient     ...    0.1071399067
RMS gradient                       ...    0.0233798444
MAX gradient                       ...    0.0618751086

-------
TIMINGS
-------

Total SCF gradient time            ...        3.335 sec

One electron gradient       ....       0.057 sec  (  1.7%)
RI-J Coulomb gradient       ....       0.859 sec  ( 25.8%)
COSX gradient               ....       1.175 sec  ( 35.2%)
XC gradient                 ....       0.440 sec  ( 13.2%)

Maximum memory used throughout the entire SCFGRAD-calculation: 35.9 MB

                            ***************************************
                            *     ORCA property calculations      *
                            ***************************************

                                    ---------------------
                                    Active property flags
                                    ---------------------
   (+) Dipole Moment


------------------------------------------------------------------------------
                       ORCA ELECTRIC PROPERTIES CALCULATION
------------------------------------------------------------------------------

Dipole Moment Calculation                       ... on
Quadrupole Moment Calculation                   ... off
Polarizability Calculation                      ... off
GBWName                                         ... ox_gs_A_orca0004.gbw
Electron density                                ... ox_gs_A_orca0004.scfp
The origin for moment calculation is the CENTER OF MASS  = (-0.018090, -0.060868  0.022138)

-------------
DIPOLE MOMENT
-------------
                                X             Y             Z
Electronic contribution:     -0.01922       1.79885       0.11557
Nuclear contribution   :      0.00691      -2.48568      -0.13917
                        -----------------------------------------
Total Dipole Moment    :     -0.01232      -0.68682      -0.02360
                        -----------------------------------------
Magnitude (a.u.)       :      0.68734
Magnitude (Debye)      :      1.74708



--------------------
Rotational spectrum 
--------------------
 
Rotational constants in cm-1:     0.903287     0.756621     0.490961 
Rotational constants in MHz : 27079.852011 22682.933349 14718.654752 

 Dipole components along the rotational axes: 
x,y,z [a.u.] :     0.004932    -0.687196     0.013084 
x,y,z [Debye]:     0.012537    -1.746714     0.033256 

 

Timings for individual modules:

Sum of individual times         ...       16.677 sec (=   0.278 min)
GTO integral calculation        ...        1.815 sec (=   0.030 min)  10.9 %
SCF iterations                  ...       10.538 sec (=   0.176 min)  63.2 %
SCF Gradient evaluation         ...        4.324 sec (=   0.072 min)  25.9 %
                             ****ORCA TERMINATED NORMALLY****
TOTAL RUN TIME: 0 days 0 hours 0 minutes 19 seconds 31 msec
