
                                 *****************
                                 * O   R   C   A *
                                 *****************

                                            #,                                       
                                            ###                                      
                                            ####                                     
                                            #####                                    
                                            ######                                   
                                           ########,                                 
                                     ,,################,,,,,                         
                               ,,#################################,,                 
                          ,,##########################################,,             
                       ,#########################################, ''#####,          
                    ,#############################################,,   '####,        
                  ,##################################################,,,,####,       
                ,###########''''           ''''###############################       
              ,#####''   ,,,,##########,,,,          '''####'''          '####       
            ,##' ,,,,###########################,,,                        '##       
           ' ,,###''''                  '''############,,,                           
         ,,##''                                '''############,,,,        ,,,,,,###''
      ,#''                                            '''#######################'''  
     '                                                          ''''####''''         
             ,#######,   #######,   ,#######,      ##                                
            ,#'     '#,  ##    ##  ,#'     '#,    #''#        ######   ,####,        
            ##       ##  ##   ,#'  ##            #'  '#       #        #'  '#        
            ##       ##  #######   ##           ,######,      #####,   #    #        
            '#,     ,#'  ##    ##  '#,     ,#' ,#      #,         ##   #,  ,#        
             '#######'   ##     ##  '#######'  #'      '#     #####' # '####'        



                  #######################################################
                  #                        -***-                        #
                  #          Department of theory and spectroscopy      #
                  #    Directorship and core code : Frank Neese         #
                  #        Max Planck Institute fuer Kohlenforschung    #
                  #                Kaiser Wilhelm Platz 1               #
                  #                 D-45470 Muelheim/Ruhr               #
                  #                      Germany                        #
                  #                                                     #
                  #                  All rights reserved                #
                  #                        -***-                        #
                  #######################################################


                         Program Version 5.0.2 -  RELEASE  -


 With contributions from (in alphabetic order):
   Daniel Aravena         : Magnetic Suceptibility
   Michael Atanasov       : Ab Initio Ligand Field Theory (pilot matlab implementation)
   Alexander A. Auer      : GIAO ZORA, VPT2 properties, NMR spectrum
   Ute Becker             : Parallelization
   Giovanni Bistoni       : ED, misc. LED, open-shell LED, HFLD
   Martin Brehm           : Molecular dynamics
   Dmytro Bykov           : SCF Hessian
   Vijay G. Chilkuri      : MRCI spin determinant printing, contributions to CSF-ICE
   Dipayan Datta          : RHF DLPNO-CCSD density
   Achintya Kumar Dutta   : EOM-CC, STEOM-CC
   Dmitry Ganyushin       : Spin-Orbit,Spin-Spin,Magnetic field MRCI
   Miquel Garcia          : C-PCM and meta-GGA Hessian, CC/C-PCM, Gaussian charge scheme
   Yang Guo               : DLPNO-NEVPT2, F12-NEVPT2, CIM, IAO-localization
   Andreas Hansen         : Spin unrestricted coupled pair/coupled cluster methods
   Benjamin Helmich-Paris : MC-RPA, TRAH-SCF, COSX integrals
   Lee Huntington         : MR-EOM, pCC
   Robert Izsak           : Overlap fitted RIJCOSX, COSX-SCS-MP3, EOM
   Marcus Kettner         : VPT2
   Christian Kollmar      : KDIIS, OOCD, Brueckner-CCSD(T), CCSD density, CASPT2, CASPT2-K
   Simone Kossmann        : Meta GGA functionals, TD-DFT gradient, OOMP2, MP2 Hessian
   Martin Krupicka        : Initial AUTO-CI
   Lucas Lang             : DCDCAS
   Marvin Lechner         : AUTO-CI (C++ implementation), FIC-MRCC
   Dagmar Lenk            : GEPOL surface, SMD
   Dimitrios Liakos       : Extrapolation schemes; Compound Job, initial MDCI parallelization
   Dimitrios Manganas     : Further ROCIS development; embedding schemes
   Dimitrios Pantazis     : SARC Basis sets
   Anastasios Papadopoulos: AUTO-CI, single reference methods and gradients
   Taras Petrenko         : DFT Hessian,TD-DFT gradient, ASA, ECA, R-Raman, ABS, FL, XAS/XES, NRVS
   Peter Pinski           : DLPNO-MP2, DLPNO-MP2 Gradient
   Christoph Reimann      : Effective Core Potentials
   Marius Retegan         : Local ZFS, SOC
   Christoph Riplinger    : Optimizer, TS searches, QM/MM, DLPNO-CCSD(T), (RO)-DLPNO pert. Triples
   Tobias Risthaus        : Range-separated hybrids, TD-DFT gradient, RPA, STAB
   Michael Roemelt        : Original ROCIS implementation
   Masaaki Saitow         : Open-shell DLPNO-CCSD energy and density
   Barbara Sandhoefer     : DKH picture change effects
   Avijit Sen             : IP-ROCIS
   Kantharuban Sivalingam : CASSCF convergence, NEVPT2, FIC-MRCI
   Bernardo de Souza      : ESD, SOC TD-DFT
   Georgi Stoychev        : AutoAux, RI-MP2 NMR, DLPNO-MP2 response
   Willem Van den Heuvel  : Paramagnetic NMR
   Boris Wezisla          : Elementary symmetry handling
   Frank Wennmohs         : Technical directorship


 We gratefully acknowledge several colleagues who have allowed us to
 interface, adapt or use parts of their codes:
   Stefan Grimme, W. Hujo, H. Kruse, P. Pracht,  : VdW corrections, initial TS optimization,
                  C. Bannwarth, S. Ehlert          DFT functionals, gCP, sTDA/sTD-DF
   Ed Valeev, F. Pavosevic, A. Kumar             : LibInt (2-el integral package), F12 methods
   Garnet Chan, S. Sharma, J. Yang, R. Olivares  : DMRG
   Ulf Ekstrom                                   : XCFun DFT Library
   Mihaly Kallay                                 : mrcc  (arbitrary order and MRCC methods)
   Jiri Pittner, Ondrej Demel                    : Mk-CCSD
   Frank Weinhold                                : gennbo (NPA and NBO analysis)
   Christopher J. Cramer and Donald G. Truhlar   : smd solvation model
   Lars Goerigk                                  : TD-DFT with DH, B97 family of functionals
   V. Asgeirsson, H. Jonsson                     : NEB implementation
   FAccTs GmbH                                   : IRC, NEB, NEB-TS, DLPNO-Multilevel, CI-OPT
                                                   MM, QMMM, 2- and 3-layer-ONIOM, Crystal-QMMM,
                                                   LR-CPCM, SF, NACMEs, symmetry and pop. for TD-DFT,
                                                   nearIR, NL-DFT gradient (VV10), updates on ESD,
                                                   ML-optimized integration grids
   S Lehtola, MJT Oliveira, MAL Marques          : LibXC Library
   Liviu Ungur et al                             : ANISO software


 Your calculation uses the libint2 library for the computation of 2-el integrals
 For citations please refer to: http://libint.valeyev.net

 Your ORCA version has been built with support for libXC version: 5.1.0
 For citations please refer to: https://tddft.org/programs/libxc/

 This ORCA versions uses:
   CBLAS   interface :  Fast vector & matrix operations
   LAPACKE interface :  Fast linear algebra routines
   SCALAPACK package :  Parallel linear algebra routines
   Shared memory     :  Shared parallel matrices
   BLAS/LAPACK       :  OpenBLAS 0.3.15  USE64BITINT DYNAMIC_ARCH NO_AFFINITY SkylakeX SINGLE_THREADED
        Core in use  :  SkylakeX
   Copyright (c) 2011-2014, The OpenBLAS Project


Your calculation utilizes the atom-pairwise dispersion correction
with the Becke-Johnson damping scheme (D3BJ)
Cite in your paper:
S.Grimme, S.Ehrlich, L.Goerigk, J Comput Chem, (2011), 32, 1456–1465 
S.Grimme, J.Antony, S.Ehrlich and H.Krieg, J.Chem.Phys., 132, (2010), 154104 
   

================================================================================

----- Orbital basis set information -----
Your calculation utilizes the basis: def2-TZVP
   F. Weigend and R. Ahlrichs, Phys. Chem. Chem. Phys. 7, 3297 (2005).

----- AuxJ basis set information -----
Your calculation utilizes the auxiliary basis: def2/J
   F. Weigend, Phys. Chem. Chem. Phys. 8, 1057 (2006).

================================================================================
                                        WARNINGS
                       Please study these warnings very carefully!
================================================================================


INFO   : the flag for use of the SHARK integral package has been found!

================================================================================
                                       INPUT FILE
================================================================================
NAME = ox_gs_D_orca0008.inp
|  1> ! engrad PBE0 D3BJ def2-TZVP  
|  2> %pal nprocs 8 end
|  3> %maxcore 3000
|  4>  
|  5> *xyz 0 1 
|  6> O   -0.7700630458736587 0.9771480628298606 0.012205705161277456
|  7> C   -0.733224221128381 -0.5957281637967711 0.047045952749010245
|  8> C   0.7081249974539292 -0.48343625259202655 -0.053968108219825985
|  9> H   -1.265443525662844 -0.7298027288779798 0.906848545347109
| 10> H   -1.1935725653843046 -0.6352554344985115 -0.970349851960434
| 11> H   1.2752287756535112 -0.7004826745539323 -0.9800952141133494
| 12> H   1.2809080199461178 -0.6989166904171312 0.9987129007649007
| 13> *
| 14> 
| 15>                          ****END OF INPUT****
================================================================================

                     *******************************
                     * Energy+Gradient Calculation *
                     *******************************

---------------------------------
CARTESIAN COORDINATES (ANGSTROEM)
---------------------------------
  O     -0.770063    0.977148    0.012206
  C     -0.733224   -0.595728    0.047046
  C      0.708125   -0.483436   -0.053968
  H     -1.265444   -0.729803    0.906849
  H     -1.193573   -0.635255   -0.970350
  H      1.275229   -0.700483   -0.980095
  H      1.280908   -0.698917    0.998713

----------------------------
CARTESIAN COORDINATES (A.U.)
----------------------------
  NO LB      ZA    FRAG     MASS         X           Y           Z
   0 O     8.0000    0    15.999   -1.455208    1.846542    0.023065
   1 C     6.0000    0    12.011   -1.385593   -1.125763    0.088904
   2 C     6.0000    0    12.011    1.338162   -0.913562   -0.101985
   3 H     1.0000    0     1.008   -2.391342   -1.379127    1.713695
   4 H     1.0000    0     1.008   -2.255525   -1.200459   -1.833695
   5 H     1.0000    0     1.008    2.409833   -1.323720   -1.852112
   6 H     1.0000    0     1.008    2.420565   -1.320761    1.887294

--------------------------------
INTERNAL COORDINATES (ANGSTROEM)
--------------------------------
 O      0   0   0     0.000000000000     0.00000000     0.00000000
 C      1   0   0     1.573693288461     0.00000000     0.00000000
 C      2   1   0     1.449241485655    86.80671668     0.00000000
 H      2   1   3     1.020046016295    97.92164582   125.92163862
 H      2   1   3     1.117397523994    90.31822596   249.55825532
 H      3   2   1     1.107441764070   123.53178537   254.66332971
 H      3   2   1     1.217640963756   113.19562657   104.44727916

---------------------------
INTERNAL COORDINATES (A.U.)
---------------------------
 O      0   0   0     0.000000000000     0.00000000     0.00000000
 C      1   0   0     2.973849333982     0.00000000     0.00000000
 C      2   1   0     2.738669509805    86.80671668     0.00000000
 H      2   1   3     1.927607614795    97.92164582   125.92163862
 H      2   1   3     2.111575303071    90.31822596   249.55825532
 H      3   2   1     2.092761643358   123.53178537   254.66332971
 H      3   2   1     2.301007950944   113.19562657   104.44727916

---------------------
BASIS SET INFORMATION
---------------------
There are 3 groups of distinct atoms

 Group   1 Type O   : 11s6p2d1f contracted to 5s3p2d1f pattern {62111/411/11/1}
 Group   2 Type C   : 11s6p2d1f contracted to 5s3p2d1f pattern {62111/411/11/1}
 Group   3 Type H   : 5s1p contracted to 3s1p pattern {311/1}

Atom   0O    basis set group =>   1
Atom   1C    basis set group =>   2
Atom   2C    basis set group =>   2
Atom   3H    basis set group =>   3
Atom   4H    basis set group =>   3
Atom   5H    basis set group =>   3
Atom   6H    basis set group =>   3
---------------------------------
AUXILIARY/J BASIS SET INFORMATION
---------------------------------
There are 3 groups of distinct atoms

 Group   1 Type O   : 12s5p4d2f1g contracted to 6s4p3d1f1g pattern {711111/2111/211/2/1}
 Group   2 Type C   : 12s5p4d2f1g contracted to 6s4p3d1f1g pattern {711111/2111/211/2/1}
 Group   3 Type H   : 5s2p1d contracted to 3s1p1d pattern {311/2/1}

Atom   0O    basis set group =>   1
Atom   1C    basis set group =>   2
Atom   2C    basis set group =>   2
Atom   3H    basis set group =>   3
Atom   4H    basis set group =>   3
Atom   5H    basis set group =>   3
Atom   6H    basis set group =>   3


           ************************************************************
           *        Program running with 8 parallel MPI-processes     *
           *              working on a common directory               *
           ************************************************************
------------------------------------------------------------------------------
                           ORCA GTO INTEGRAL CALCULATION
                           -- RI-GTO INTEGRALS CHOSEN --
------------------------------------------------------------------------------
------------------------------------------------------------------------------
                   ___                                                        
                  /   \      - P O W E R E D   B Y -                         
                 /     \                                                     
                 |  |  |   _    _      __       _____    __    __             
                 |  |  |  | |  | |    /  \     |  _  \  |  |  /  |          
                  \  \/   | |  | |   /    \    | | | |  |  | /  /          
                 / \  \   | |__| |  /  /\  \   | |_| |  |  |/  /          
                |  |  |   |  __  | /  /__\  \  |    /   |      \           
                |  |  |   | |  | | |   __   |  |    \   |  |\   \          
                \     /   | |  | | |  |  |  |  | |\  \  |  | \   \       
                 \___/    |_|  |_| |__|  |__|  |_| \__\ |__|  \__/        
                                                                              
                      - O R C A' S   B I G   F R I E N D -                    
                                      &                                       
                       - I N T E G R A L  F E E D E R -                       
                                                                              
 v1 FN, 2020, v2 2021                                                         
------------------------------------------------------------------------------


Reading SHARK input file ox_gs_D_orca0008.SHARKINP.tmp ... ok
----------------------
SHARK INTEGRAL PACKAGE
----------------------

Number of atoms                             ...      7
Number of basis functions                   ...    117
Number of shells                            ...     49
Maximum angular momentum                    ...      3
Integral batch strategy                     ... SHARK/LIBINT Hybrid
RI-J (if used) integral strategy            ... SPLIT-RIJ (Revised 2003 algorithm where possible)
Printlevel                                  ...      1
Contraction scheme used                     ... SEGMENTED contraction
Coulomb Range Separation                    ... NOT USED
Exchange Range Separation                   ... NOT USED
Finite Nucleus Model                        ... NOT USED
Auxiliary Coulomb fitting basis             ... AVAILABLE
   # of basis functions in Aux-J            ...    191
   # of shells in Aux-J                     ...     65
   Maximum angular momentum in Aux-J        ...      4
Auxiliary J/K fitting basis                 ... NOT available
Auxiliary Correlation fitting basis         ... NOT available
Auxiliary 'external' fitting basis          ... NOT available
Integral threshold                          ...     2.500000e-11
Primitive cut-off                           ...     2.500000e-12
Primitive pair pre-selection threshold      ...     2.500000e-12

Calculating pre-screening integrals         ... done (  0.0 sec) Dimension = 49
Organizing shell pair data                  ... done (  0.0 sec)
Shell pair information
Total number of shell pairs                 ...      1225
Shell pairs after pre-screening             ...      1213
Total number of primitive shell pairs       ...      3648
Primitive shell pairs kept                  ...      3077
          la=0 lb=0:    367 shell pairs
          la=1 lb=0:    351 shell pairs
          la=1 lb=1:     91 shell pairs
          la=2 lb=0:    161 shell pairs
          la=2 lb=1:     78 shell pairs
          la=2 lb=2:     21 shell pairs
          la=3 lb=0:     81 shell pairs
          la=3 lb=1:     39 shell pairs
          la=3 lb=2:     18 shell pairs
          la=3 lb=3:      6 shell pairs

Calculating one electron integrals          ... done (  0.0 sec)
Calculating RI/J V-Matrix + Cholesky decomp.... done (  0.0 sec)
Calculating Nuclear repulsion               ... done (  0.0 sec) ENN=     67.315439459361 Eh

SHARK setup successfully completed in   0.1 seconds

Maximum memory used throughout the entire GTOINT-calculation: 14.9 MB


           ************************************************************
           *        Program running with 8 parallel MPI-processes     *
           *              working on a common directory               *
           ************************************************************
-------------------------------------------------------------------------------
                                 ORCA SCF
-------------------------------------------------------------------------------

------------
SCF SETTINGS
------------
Hamiltonian:
 Density Functional     Method          .... DFT(GTOs)
 Exchange Functional    Exchange        .... PBE
   PBE kappa parameter   XKappa         ....  0.804000
   PBE mue parameter    XMuePBE         ....  0.219520
 Correlation Functional Correlation     .... PBE
   PBE beta parameter  CBetaPBE         ....  0.066725
 LDA part of GGA corr.  LDAOpt          .... PW91-LDA
 Gradients option       PostSCFGGA      .... off
 Hybrid DFT is turned on
   Fraction HF Exchange ScalHFX         ....  0.250000
   Scaling of DF-GGA-X  ScalDFX         ....  0.750000
   Scaling of DF-GGA-C  ScalDFC         ....  1.000000
   Scaling of DF-LDA-C  ScalLDAC        ....  1.000000
   Perturbative correction              ....  0.000000
   Density functional embedding theory  .... OFF
   NL short-range parameter             ....  6.900000
 RI-approximation to the Coulomb term is turned on
   Number of AuxJ basis functions       .... 191
   RIJ-COSX (HFX calculated with COS-X)).... on


General Settings:
 Integral files         IntName         .... ox_gs_D_orca0008
 Hartree-Fock type      HFTyp           .... RHF
 Total Charge           Charge          ....    0
 Multiplicity           Mult            ....    1
 Number of Electrons    NEL             ....   24
 Basis Dimension        Dim             ....  117
 Nuclear Repulsion      ENuc            ....     67.3154394594 Eh

Convergence Acceleration:
 DIIS                   CNVDIIS         .... on
   Start iteration      DIISMaxIt       ....    12
   Startup error        DIISStart       ....  0.200000
   # of expansion vecs  DIISMaxEq       ....     5
   Bias factor          DIISBfac        ....   1.050
   Max. coefficient     DIISMaxC        ....  10.000
 Trust-Rad. Augm. Hess. CNVTRAH         .... auto
   Auto Start mean grad. ratio tolernc. ....  1.125000
   Auto Start start iteration           ....    20
   Auto Start num. interpolation iter.  ....    10
   Max. Number of Micro iterations      ....    16
   Max. Number of Macro iterations      .... Maxiter - #DIIS iter
   Number of Davidson start vectors     ....     2
   Converg. threshold I  (grad. norm)   ....   1.000e-05
   Converg. threshold II (energy diff.) ....   1.000e-08
   Grad. Scal. Fac. for Micro threshold ....   0.100
   Minimum threshold for Micro iter.    ....   0.010
   NR start threshold (gradient norm)   ....   0.001
   Initial trust radius                 ....   0.400
   Minimum AH scaling param. (alpha)    ....   1.000
   Maximum AH scaling param. (alpha)    .... 1000.000
   Orbital update algorithm             .... Taylor
   White noise on init. David. guess    .... on
   Maximum white noise                  ....   0.010
   Quad. conv. algorithm                .... NR
 SOSCF                  CNVSOSCF        .... on
   Start iteration      SOSCFMaxIt      ....   150
   Startup grad/error   SOSCFStart      ....  0.003300
 Level Shifting         CNVShift        .... on
   Level shift para.    LevelShift      ....    0.2500
   Turn off err/grad.   ShiftErr        ....    0.0010
 Zerner damping         CNVZerner       .... off
 Static damping         CNVDamp         .... on
   Fraction old density DampFac         ....    0.7000
   Max. Damping (<1)    DampMax         ....    0.9800
   Min. Damping (>=0)   DampMin         ....    0.0000
   Turn off err/grad.   DampErr         ....    0.1000
 Fernandez-Rico         CNVRico         .... off

SCF Procedure:
 Maximum # iterations   MaxIter         ....   125
 SCF integral mode      SCFMode         .... Direct
   Integral package                     .... SHARK and LIBINT hybrid scheme
 Reset frequency        DirectResetFreq ....    20
 Integral Threshold     Thresh          ....  2.500e-11 Eh
 Primitive CutOff       TCut            ....  2.500e-12 Eh

Convergence Tolerance:
 Convergence Check Mode ConvCheckMode   .... Total+1el-Energy
 Convergence forced     ConvForced      .... 0
 Energy Change          TolE            ....  1.000e-08 Eh
 1-El. energy change                    ....  1.000e-05 Eh
 Orbital Gradient       TolG            ....  1.000e-05
 Orbital Rotation angle TolX            ....  1.000e-05
 DIIS Error             TolErr          ....  5.000e-07


Diagonalization of the overlap matrix:
Smallest eigenvalue                        ... 4.209e-04
Time for diagonalization                   ...    0.001 sec
Threshold for overlap eigenvalues          ... 1.000e-08
Number of eigenvalues below threshold      ... 0
Time for construction of square roots      ...    0.001 sec
Total time needed                          ...    0.003 sec

Time for model grid setup =    0.022 sec

------------------------------
INITIAL GUESS: MODEL POTENTIAL
------------------------------
Loading Hartree-Fock densities                     ... done
Calculating cut-offs                               ... done
Initializing the effective Hamiltonian             ... done
Setting up the integral package (SHARK)            ... done
Starting the Coulomb interaction                   ... done (   0.0 sec)
Reading the grid                                   ... done
Mapping shells                                     ... done
Starting the XC term evaluation                    ... done (   0.0 sec)
  promolecular density results
     # of electrons  =     23.998958510
     EX              =    -19.414312188
     EC              =     -0.760504636
     EX+EC           =    -20.174816825
Transforming the Hamiltonian                       ... done (   0.0 sec)
Diagonalizing the Hamiltonian                      ... done (   0.0 sec)
Back transforming the eigenvectors                 ... done (   0.0 sec)
Now organizing SCF variables                       ... done
                      ------------------
                      INITIAL GUESS DONE (   0.0 sec)
                      ------------------
-------------------
DFT GRID GENERATION
-------------------

General Integration Accuracy     IntAcc      ... 4.388
Radial Grid Type                 RadialGrid  ... OptM3 with GC (2021)
Angular Grid (max. ang.)         AngularGrid ... 4 (Lebedev-302)
Angular grid pruning method      GridPruning ... 4 (adaptive)
Weight generation scheme         WeightScheme... Becke
Basis function cutoff            BFCut       ... 1.0000e-11
Integration weight cutoff        WCut        ... 1.0000e-14
Angular grids for H and He will be reduced by one unit
Partially contracted basis set               ... off
Rotationally invariant grid construction     ... off

Total number of grid points                  ...    31344
Total number of batches                      ...      493
Average number of points per batch           ...       63
Average number of grid points per atom       ...     4478
Time for grid setup =    0.112 sec

--------------------
COSX GRID GENERATION
--------------------

GRIDX 1
-------
General Integration Accuracy     IntAcc      ... 3.816
Radial Grid Type                 RadialGrid  ... OptM3 with GC (2021)
Angular Grid (max. ang.)         AngularGrid ... 1 (Lebedev-50)
Angular grid pruning method      GridPruning ... 4 (adaptive)
Weight generation scheme         WeightScheme... Becke
Basis function cutoff            BFCut       ... 1.0000e-11
Integration weight cutoff        WCut        ... 1.0000e-14
Angular grids for H and He will be reduced by one unit
Partially contracted basis set               ... on
Rotationally invariant grid construction     ... off

Total number of grid points                  ...     4033
Total number of batches                      ...       67
Average number of points per batch           ...       60
Average number of grid points per atom       ...      576
UseSFitting                                  ... on

GRIDX 2
-------
General Integration Accuracy     IntAcc      ... 4.020
Radial Grid Type                 RadialGrid  ... OptM3 with GC (2021)
Angular Grid (max. ang.)         AngularGrid ... 2 (Lebedev-110)
Angular grid pruning method      GridPruning ... 4 (adaptive)
Weight generation scheme         WeightScheme... Becke
Basis function cutoff            BFCut       ... 1.0000e-11
Integration weight cutoff        WCut        ... 1.0000e-14
Angular grids for H and He will be reduced by one unit
Partially contracted basis set               ... on
Rotationally invariant grid construction     ... off

Total number of grid points                  ...     8725
Total number of batches                      ...      141
Average number of points per batch           ...       61
Average number of grid points per atom       ...     1246
UseSFitting                                  ... on

GRIDX 3
-------
General Integration Accuracy     IntAcc      ... 4.338
Radial Grid Type                 RadialGrid  ... OptM3 with GC (2021)
Angular Grid (max. ang.)         AngularGrid ... 3 (Lebedev-194)
Angular grid pruning method      GridPruning ... 4 (adaptive)
Weight generation scheme         WeightScheme... Becke
Basis function cutoff            BFCut       ... 1.0000e-11
Integration weight cutoff        WCut        ... 1.0000e-14
Angular grids for H and He will be reduced by one unit
Partially contracted basis set               ... on
Rotationally invariant grid construction     ... off

Total number of grid points                  ...    19256
Total number of batches                      ...      303
Average number of points per batch           ...       63
Average number of grid points per atom       ...     2751
UseSFitting                                  ... on

Time for X-Grid setup             =    0.072 sec

--------------
SCF ITERATIONS
--------------
ITER       Energy         Delta-E        Max-DP      RMS-DP      [F,P]     Damp
               ***  Starting incremental Fock matrix formation  ***
  0   -153.4195455379   0.000000000000 0.07161830  0.00222448  0.2873480 0.7000
  1   -153.4870345934  -0.067489055528 0.04062730  0.00124306  0.0789591 0.7000
                               ***Turning on DIIS***
  2   -153.4998268072  -0.012792213830 0.03558248  0.00143360  0.0510748 0.0000
  3   -153.5410164613  -0.041189654082 0.02522722  0.00108232  0.0364666 0.0000
  4   -153.5431352852  -0.002118823845 0.00968079  0.00029965  0.0428949 0.0000
  5   -153.5452721010  -0.002136815830 0.00261036  0.00008347  0.0086787 0.0000
  6   -153.5453707653  -0.000098664325 0.00111799  0.00003483  0.0037118 0.0000
                      *** Initiating the SOSCF procedure ***
                           *** Shutting down DIIS ***
                      *** Re-Reading the Fockian *** 
                      *** Removing any level shift *** 
ITER      Energy       Delta-E        Grad      Rot      Max-DP    RMS-DP
  7   -153.54538638  -0.0000156181  0.000266  0.000266  0.000609  0.000027
               *** Restarting incremental Fock matrix formation ***
  8   -153.54537895   0.0000074349  0.000190  0.001053  0.000610  0.000022
  9   -153.54537605   0.0000028968  0.000738  0.000982  0.000599  0.000015
 10   -153.54537948  -0.0000034257  0.000089  0.000186  0.000167  0.000007
 11   -153.54537938   0.0000001021  0.000118  0.000101  0.000100  0.000004
 12   -153.54537960  -0.0000002267  0.000007  0.000047  0.000014  0.000001
 13   -153.54537960  -0.0000000007  0.000003  0.000047  0.000015  0.000001
                  ***Gradient check signals convergence***
              ***Rediagonalizing the Fockian in SOSCF/NRSCF***

               *****************************************************
               *                     SUCCESS                       *
               *           SCF CONVERGED AFTER  14 CYCLES          *
               *****************************************************

Old exchange energy                            =     -4.935851932 Eh
New exchange energy                            =     -4.935856776 Eh
Exchange energy change after final integration =     -0.000004845 Eh
Total energy after final integration           =   -153.545384448 Eh
Final COS-X integration done in                =     0.302 sec

----------------
TOTAL SCF ENERGY
----------------

Total Energy       :         -153.54538445 Eh           -4178.18233 eV

Components:
Nuclear Repulsion  :           67.31543946 Eh            1831.74623 eV
Electronic Energy  :         -220.86082391 Eh           -6009.92856 eV
One Electron Energy:         -341.60519315 Eh           -9295.54988 eV
Two Electron Energy:          120.74436924 Eh            3285.62132 eV
Max COSX asymmetry :            0.00000149 Eh               0.00004 eV

Virial components:
Potential Energy   :         -306.02916036 Eh           -8327.47681 eV
Kinetic Energy     :          152.48377591 Eh            4149.29449 eV
Virial Ratio       :            2.00696211


DFT components:
N(Alpha)           :       12.000000545001 electrons
N(Beta)            :       12.000000545001 electrons
N(Total)           :       24.000001090001 electrons
E(X)               :      -14.824556251615 Eh       
E(C)               :       -0.768187805314 Eh       
E(XC)              :      -15.592744056929 Eh       
DFET-embed. en.    :        0.000000000000 Eh       

---------------
SCF CONVERGENCE
---------------

  Last Energy change         ...   -8.7476e-10  Tolerance :   1.0000e-08
  Last MAX-Density change    ...    5.5511e-16  Tolerance :   1.0000e-07
  Last RMS-Density change    ...    1.6223e-17  Tolerance :   5.0000e-09
  Last Orbital Gradient      ...    1.3102e-06  Tolerance :   1.0000e-05
  Last Orbital Rotation      ...    5.4063e-06  Tolerance :   1.0000e-05

             **** THE GBW FILE WAS UPDATED (ox_gs_D_orca0008.gbw) ****
             **** DENSITY ox_gs_D_orca0008.scfp WAS UPDATED ****
             **** ENERGY FILE WAS UPDATED (ox_gs_D_orca0008.en.tmp) ****
             **** THE GBW FILE WAS UPDATED (ox_gs_D_orca0008.gbw) ****
             **** DENSITY ox_gs_D_orca0008.scfp WAS UPDATED ****
----------------
ORBITAL ENERGIES
----------------

  NO   OCC          E(Eh)            E(eV) 
   0   2.0000     -19.206468      -522.6346 
   1   2.0000     -10.326495      -280.9982 
   2   2.0000     -10.274441      -279.5817 
   3   2.0000      -0.962227       -26.1835 
   4   2.0000      -0.762739       -20.7552 
   5   2.0000      -0.630279       -17.1508 
   6   2.0000      -0.516592       -14.0572 
   7   2.0000      -0.478000       -13.0071 
   8   2.0000      -0.404893       -11.0177 
   9   2.0000      -0.374973       -10.2035 
  10   2.0000      -0.288400        -7.8478 
  11   2.0000      -0.263432        -7.1684 
  12   0.0000      -0.107574        -2.9272 
  13   0.0000       0.040595         1.1046 
  14   0.0000       0.067819         1.8455 
  15   0.0000       0.075720         2.0605 
  16   0.0000       0.092613         2.5201 
  17   0.0000       0.143288         3.8991 
  18   0.0000       0.184679         5.0254 
  19   0.0000       0.188978         5.1424 
  20   0.0000       0.226086         6.1521 
  21   0.0000       0.260672         7.0933 
  22   0.0000       0.271304         7.3826 
  23   0.0000       0.297545         8.0966 
  24   0.0000       0.352008         9.5786 
  25   0.0000       0.366955         9.9854 
  26   0.0000       0.395086        10.7508 
  27   0.0000       0.411016        11.1843 
  28   0.0000       0.426163        11.5965 
  29   0.0000       0.480645        13.0790 
  30   0.0000       0.513102        13.9622 
  31   0.0000       0.544376        14.8132 
  32   0.0000       0.573668        15.6103 
  33   0.0000       0.627008        17.0618 
  34   0.0000       0.686589        18.6830 
  35   0.0000       0.743510        20.2319 
  36   0.0000       0.778016        21.1709 
  37   0.0000       0.810723        22.0609 
  38   0.0000       0.862915        23.4811 
  39   0.0000       0.928446        25.2643 
  40   0.0000       0.934360        25.4252 
  41   0.0000       1.025981        27.9184 
  42   0.0000       1.045371        28.4460 
  43   0.0000       1.075335        29.2613 
  44   0.0000       1.161197        31.5978 
  45   0.0000       1.333184        36.2778 
  46   0.0000       1.392472        37.8911 
  47   0.0000       1.454285        39.5731 
  48   0.0000       1.477905        40.2158 
  49   0.0000       1.514575        41.2137 
  50   0.0000       1.578202        42.9451 
  51   0.0000       1.596739        43.4495 
  52   0.0000       1.631217        44.3877 
  53   0.0000       1.662283        45.2330 
  54   0.0000       1.707193        46.4551 
  55   0.0000       1.774610        48.2896 
  56   0.0000       1.796060        48.8733 
  57   0.0000       1.810199        49.2580 
  58   0.0000       1.834500        49.9193 
  59   0.0000       1.877578        51.0915 
  60   0.0000       1.998318        54.3770 
  61   0.0000       2.066201        56.2242 
  62   0.0000       2.120671        57.7064 
  63   0.0000       2.169474        59.0344 
  64   0.0000       2.288272        62.2671 
  65   0.0000       2.355246        64.0895 
  66   0.0000       2.382262        64.8247 
  67   0.0000       2.417855        65.7932 
  68   0.0000       2.457102        66.8612 
  69   0.0000       2.491786        67.8050 
  70   0.0000       2.553874        69.4944 
  71   0.0000       2.617999        71.2394 
  72   0.0000       2.636848        71.7523 
  73   0.0000       2.693053        73.2817 
  74   0.0000       2.757672        75.0401 
  75   0.0000       2.785024        75.7843 
  76   0.0000       2.846392        77.4543 
  77   0.0000       2.915660        79.3392 
  78   0.0000       2.923905        79.5635 
  79   0.0000       2.962298        80.6082 
  80   0.0000       3.049600        82.9838 
  81   0.0000       3.079999        83.8110 
  82   0.0000       3.087457        84.0140 
  83   0.0000       3.128678        85.1356 
  84   0.0000       3.160937        86.0135 
  85   0.0000       3.176344        86.4327 
  86   0.0000       3.309465        90.0551 
  87   0.0000       3.336428        90.7888 
  88   0.0000       3.424075        93.1738 
  89   0.0000       3.461956        94.2046 
  90   0.0000       3.542409        96.3938 
  91   0.0000       3.627897        98.7201 
  92   0.0000       3.642997        99.1310 
  93   0.0000       3.874498       105.4304 
  94   0.0000       3.928118       106.8895 
  95   0.0000       4.041982       109.9879 
  96   0.0000       4.078723       110.9877 
  97   0.0000       4.233088       115.1882 
  98   0.0000       4.407001       119.9206 
  99   0.0000       4.464047       121.4729 
 100   0.0000       4.617972       125.6614 
 101   0.0000       4.700567       127.9089 
 102   0.0000       5.214839       141.9030 
 103   0.0000       5.236163       142.4832 
 104   0.0000       5.307849       144.4339 
 105   0.0000       5.330633       145.0539 
 106   0.0000       5.545867       150.9107 
 107   0.0000       5.573555       151.6641 
 108   0.0000       5.752684       156.5385 
 109   0.0000       6.350383       172.8027 
 110   0.0000       6.425565       174.8485 
 111   0.0000       6.694375       182.1632 
 112   0.0000       6.745911       183.5656 
 113   0.0000       7.013217       190.8393 
 114   0.0000      21.961475       597.6021 
 115   0.0000      22.339852       607.8983 
 116   0.0000      43.604738      1186.5452 

                    ********************************
                    * MULLIKEN POPULATION ANALYSIS *
                    ********************************

-----------------------
MULLIKEN ATOMIC CHARGES
-----------------------
   0 O :   -0.394836
   1 C :   -0.074980
   2 C :   -0.146113
   3 H :    0.150561
   4 H :    0.144751
   5 H :    0.167837
   6 H :    0.152780
Sum of atomic charges:   -0.0000000

--------------------------------
MULLIKEN REDUCED ORBITAL CHARGES
--------------------------------
  0 O s       :     3.936026  s :     3.936026
      pz      :     1.945429  p :     4.440853
      px      :     1.321987
      py      :     1.173436
      dz2     :     0.002589  d :     0.017096
      dxz     :     0.000216
      dyz     :     0.003347
      dx2y2   :     0.006128
      dxy     :     0.004817
      f0      :     0.000091  f :     0.000861
      f+1     :     0.000048
      f-1     :     0.000220
      f+2     :     0.000092
      f-2     :     0.000019
      f+3     :     0.000163
      f-3     :     0.000227
  1 C s       :     3.197099  s :     3.197099
      pz      :     1.083618  p :     2.740464
      px      :     0.923781
      py      :     0.733064
      dz2     :     0.014181  d :     0.129119
      dxz     :     0.019093
      dyz     :     0.031734
      dx2y2   :     0.023956
      dxy     :     0.040156
      f0      :     0.001494  f :     0.008298
      f+1     :     0.001234
      f-1     :     0.000503
      f+2     :     0.002129
      f-2     :     0.000070
      f+3     :     0.001841
      f-3     :     0.001029
  2 C s       :     3.322894  s :     3.322894
      pz      :     1.027975  p :     2.760350
      px      :     0.973868
      py      :     0.758508
      dz2     :     0.006498  d :     0.057889
      dxz     :     0.024054
      dyz     :     0.005200
      dx2y2   :     0.007383
      dxy     :     0.014754
      f0      :     0.000572  f :     0.004980
      f+1     :     0.001090
      f-1     :     0.000109
      f+2     :     0.000817
      f-2     :     0.000279
      f+3     :     0.000833
      f-3     :     0.001281
  3 H s       :     0.825661  s :     0.825661
      pz      :     0.011202  p :     0.023778
      px      :     0.007315
      py      :     0.005262
  4 H s       :     0.833829  s :     0.833829
      pz      :     0.011527  p :     0.021420
      px      :     0.004968
      py      :     0.004925
  5 H s       :     0.809967  s :     0.809967
      pz      :     0.011204  p :     0.022197
      px      :     0.006861
      py      :     0.004131
  6 H s       :     0.829310  s :     0.829310
      pz      :     0.010032  p :     0.017910
      px      :     0.004922
      py      :     0.002956


                     *******************************
                     * LOEWDIN POPULATION ANALYSIS *
                     *******************************

----------------------
LOEWDIN ATOMIC CHARGES
----------------------
   0 O :   -0.157396
   1 C :   -0.323204
   2 C :   -0.070312
   3 H :    0.108445
   4 H :    0.145875
   5 H :    0.135709
   6 H :    0.160882

-------------------------------
LOEWDIN REDUCED ORBITAL CHARGES
-------------------------------
  0 O s       :     3.666458  s :     3.666458
      pz      :     1.893184  p :     4.452495
      px      :     1.294179
      py      :     1.265132
      dz2     :     0.005803  d :     0.036447
      dxz     :     0.000314
      dyz     :     0.007806
      dx2y2   :     0.013342
      dxy     :     0.009182
      f0      :     0.000170  f :     0.001996
      f+1     :     0.000060
      f-1     :     0.000400
      f+2     :     0.000336
      f-2     :     0.000017
      f+3     :     0.000527
      f-3     :     0.000487
  1 C s       :     2.853369  s :     2.853369
      pz      :     1.068316  p :     2.937943
      px      :     1.073288
      py      :     0.796338
      dz2     :     0.067869  d :     0.478496
      dxz     :     0.101232
      dyz     :     0.074785
      dx2y2   :     0.115521
      dxy     :     0.119089
      f0      :     0.008505  f :     0.053396
      f+1     :     0.005313
      f-1     :     0.005007
      f+2     :     0.010936
      f-2     :     0.000358
      f+3     :     0.011831
      f-3     :     0.011446
  2 C s       :     2.935270  s :     2.935270
      pz      :     1.057811  p :     2.864170
      px      :     1.099354
      py      :     0.707004
      dz2     :     0.032301  d :     0.245589
      dxz     :     0.111581
      dyz     :     0.012906
      dx2y2   :     0.042054
      dxy     :     0.046747
      f0      :     0.003748  f :     0.025283
      f+1     :     0.003294
      f-1     :     0.001036
      f+2     :     0.004470
      f-2     :     0.001553
      f+3     :     0.004927
      f-3     :     0.006253
  3 H s       :     0.816812  s :     0.816812
      pz      :     0.036410  p :     0.074743
      px      :     0.022430
      py      :     0.015903
  4 H s       :     0.795040  s :     0.795040
      pz      :     0.032395  p :     0.059085
      px      :     0.013981
      py      :     0.012709
  5 H s       :     0.800987  s :     0.800987
      pz      :     0.033602  p :     0.063304
      px      :     0.018271
      py      :     0.011431
  6 H s       :     0.792299  s :     0.792299
      pz      :     0.027447  p :     0.046819
      px      :     0.011979
      py      :     0.007392


                      *****************************
                      * MAYER POPULATION ANALYSIS *
                      *****************************

  NA   - Mulliken gross atomic population
  ZA   - Total nuclear charge
  QA   - Mulliken gross atomic charge
  VA   - Mayer's total valence
  BVA  - Mayer's bonded valence
  FA   - Mayer's free valence

  ATOM       NA         ZA         QA         VA         BVA        FA
  0 O      8.3948     8.0000    -0.3948     1.7393     1.7393     0.0000
  1 C      6.0750     6.0000    -0.0750     3.9361     3.9361    -0.0000
  2 C      6.1461     6.0000    -0.1461     3.8613     3.8613    -0.0000
  3 H      0.8494     1.0000     0.1506     0.9805     0.9805    -0.0000
  4 H      0.8552     1.0000     0.1448     0.9849     0.9849     0.0000
  5 H      0.8322     1.0000     0.1678     0.9536     0.9536    -0.0000
  6 H      0.8472     1.0000     0.1528     0.9603     0.9603    -0.0000

  Mayer bond orders larger than 0.100000
B(  0-O ,  1-C ) :   0.8611 B(  0-O ,  2-C ) :   0.8617 B(  1-C ,  2-C ) :   1.1283 
B(  1-C ,  3-H ) :   0.9593 B(  1-C ,  4-H ) :   0.9694 B(  2-C ,  5-H ) :   0.9312 
B(  2-C ,  6-H ) :   0.9384 

-------
TIMINGS
-------

Total SCF time: 0 days 0 hours 0 min 3 sec 

Total time                  ....       3.281 sec
Sum of individual times     ....       2.966 sec  ( 90.4%)

Fock matrix formation       ....       2.688 sec  ( 81.9%)
  Split-RI-J                ....       0.286 sec  ( 10.6% of F)
  Chain of spheres X        ....       1.867 sec  ( 69.5% of F)
  XC integration            ....       0.503 sec  ( 18.7% of F)
    Basis function eval.    ....       0.140 sec  ( 27.9% of XC)
    Density eval.           ....       0.102 sec  ( 20.3% of XC)
    XC-Functional eval.     ....       0.030 sec  (  5.9% of XC)
    XC-Potential eval.      ....       0.166 sec  ( 32.9% of XC)
Diagonalization             ....       0.019 sec  (  0.6%)
Density matrix formation    ....       0.002 sec  (  0.1%)
Population analysis         ....       0.003 sec  (  0.1%)
Initial guess               ....       0.016 sec  (  0.5%)
Orbital Transformation      ....       0.000 sec  (  0.0%)
Orbital Orthonormalization  ....       0.000 sec  (  0.0%)
DIIS solution               ....       0.015 sec  (  0.5%)
SOSCF solution              ....       0.017 sec  (  0.5%)
Grid generation             ....       0.206 sec  (  6.3%)

Maximum memory used throughout the entire SCF-calculation: 61.0 MB


-------------------------------------------------------------------------------
                          DFT DISPERSION CORRECTION                            
                                                                               
                              DFTD3 V3.1  Rev 1                                
                          USING Becke-Johnson damping                          
-------------------------------------------------------------------------------
The PBE0 functional is recognized
Active option DFTDOPT                   ...         4   

molecular C6(AA) [au] = 394.914258 


            DFT-D V3
 parameters
 s6 scaling factor         :     1.0000 
 a1 scaling factor         :     0.4145 
 s8 scaling factor         :     1.2177 
 a2 scaling factor         :     4.8593 
 ad hoc parameters k1-k3   :    16.0000     1.3333    -4.0000 

 Edisp/kcal,au: -1.654112812890  -0.002635996275 
 E6   /kcal   :  -1.079407562 
 E8   /kcal   :  -0.574705251 
 % E8         :  34.744017840 

-------------------------   ----------------
Dispersion correction           -0.002635996
-------------------------   ----------------


-------------------------   --------------------
FINAL SINGLE POINT ENERGY      -153.548020444384
-------------------------   --------------------



           ************************************************************
           *        Program running with 8 parallel MPI-processes     *
           *              working on a common directory               *
           ************************************************************
------------------------------------------------------------------------------
                         ORCA SCF GRADIENT CALCULATION
------------------------------------------------------------------------------

 ... reading COSX grid (gridx3)
Gradient of the Kohn-Sham DFT energy:
Kohn-Sham wavefunction type      ... RKS
Hartree-Fock exchange scaling    ...    0.250
Number of operators              ...    1
Number of atoms                  ...    7
Basis set dimensions             ...  117
Integral neglect threshold       ... 2.5e-11
Integral primitive cutoff        ... 2.5e-12
SHARK Integral package           ... ON

Nuc. rep. gradient       (SHARK) ... done (  0.0 sec)
HCore & Overlap gradient (SHARK) ... done (  0.0 sec)
RI-J gradient            (SHARK) ... done (  0.1 sec)
COSX-gradient                    ... done (  0.4 sec)
Exchange-correlation gradient    ... done
Dispersion correction            ... done

------------------
CARTESIAN GRADIENT
------------------

   1   O   :   -0.071253591    0.054452212   -0.004549610
   2   C   :   -0.003656744   -0.079005644    0.091141480
   3   C   :    0.015471535    0.003776043   -0.067283564
   4   H   :    0.020923639    0.033014287   -0.041251286
   5   H   :    0.002541122    0.031609926   -0.022844668
   6   H   :    0.012445246   -0.017625828   -0.010000210
   7   H   :    0.023517119   -0.026143645    0.054797077

Difference to translation invariance:
           :   -0.0000116742    0.0000773506    0.0000092199

Difference to rotation invariance:
           :   -0.0001232183   -0.0000286525    0.0003119210

Norm of the cartesian gradient     ...    0.1922688518
RMS gradient                       ...    0.0419565032
MAX gradient                       ...    0.0911414801

-------
TIMINGS
-------

Total SCF gradient time            ...        0.765 sec

One electron gradient       ....       0.010 sec  (  1.3%)
RI-J Coulomb gradient       ....       0.080 sec  ( 10.4%)
COSX gradient               ....       0.351 sec  ( 45.9%)
XC gradient                 ....       0.171 sec  ( 22.4%)

Maximum memory used throughout the entire SCFGRAD-calculation: 35.8 MB

                            ***************************************
                            *     ORCA property calculations      *
                            ***************************************

                                    ---------------------
                                    Active property flags
                                    ---------------------
   (+) Dipole Moment


------------------------------------------------------------------------------
                       ORCA ELECTRIC PROPERTIES CALCULATION
------------------------------------------------------------------------------

Dipole Moment Calculation                       ... on
Quadrupole Moment Calculation                   ... off
Polarizability Calculation                      ... off
GBWName                                         ... ox_gs_D_orca0008.gbw
Electron density                                ... ox_gs_D_orca0008.scfp
The origin for moment calculation is the CENTER OF MASS  = (-0.537229, -0.004934  0.002870)

-------------
DIPOLE MOMENT
-------------
                                X             Y             Z
Electronic contribution:     -0.62305       1.31421       0.03427
Nuclear contribution   :      1.15079      -2.56926      -0.04765
                        -----------------------------------------
Total Dipole Moment    :      0.52773      -1.25505      -0.01338
                        -----------------------------------------
Magnitude (a.u.)       :      1.36156
Magnitude (Debye)      :      3.46081



--------------------
Rotational spectrum 
--------------------
 
Rotational constants in cm-1:     0.976493     0.428520     0.343462 
Rotational constants in MHz : 29274.528778 12846.701188 10296.727784 

 Dipole components along the rotational axes: 
x,y,z [a.u.] :    -1.254643    -0.528651    -0.015488 
x,y,z [Debye]:    -3.189048    -1.343725    -0.039369 

 

Timings for individual modules:

Sum of individual times         ...        4.712 sec (=   0.079 min)
GTO integral calculation        ...        0.277 sec (=   0.005 min)   5.9 %
SCF iterations                  ...        3.452 sec (=   0.058 min)  73.3 %
SCF Gradient evaluation         ...        0.983 sec (=   0.016 min)  20.9 %
                             ****ORCA TERMINATED NORMALLY****
TOTAL RUN TIME: 0 days 0 hours 0 minutes 5 seconds 31 msec
