
                                 *****************
                                 * O   R   C   A *
                                 *****************

                                            #,                                       
                                            ###                                      
                                            ####                                     
                                            #####                                    
                                            ######                                   
                                           ########,                                 
                                     ,,################,,,,,                         
                               ,,#################################,,                 
                          ,,##########################################,,             
                       ,#########################################, ''#####,          
                    ,#############################################,,   '####,        
                  ,##################################################,,,,####,       
                ,###########''''           ''''###############################       
              ,#####''   ,,,,##########,,,,          '''####'''          '####       
            ,##' ,,,,###########################,,,                        '##       
           ' ,,###''''                  '''############,,,                           
         ,,##''                                '''############,,,,        ,,,,,,###''
      ,#''                                            '''#######################'''  
     '                                                          ''''####''''         
             ,#######,   #######,   ,#######,      ##                                
            ,#'     '#,  ##    ##  ,#'     '#,    #''#        ######   ,####,        
            ##       ##  ##   ,#'  ##            #'  '#       #        #'  '#        
            ##       ##  #######   ##           ,######,      #####,   #    #        
            '#,     ,#'  ##    ##  '#,     ,#' ,#      #,         ##   #,  ,#        
             '#######'   ##     ##  '#######'  #'      '#     #####' # '####'        



                  #######################################################
                  #                        -***-                        #
                  #          Department of theory and spectroscopy      #
                  #    Directorship and core code : Frank Neese         #
                  #        Max Planck Institute fuer Kohlenforschung    #
                  #                Kaiser Wilhelm Platz 1               #
                  #                 D-45470 Muelheim/Ruhr               #
                  #                      Germany                        #
                  #                                                     #
                  #                  All rights reserved                #
                  #                        -***-                        #
                  #######################################################


                         Program Version 5.0.2 -  RELEASE  -


 With contributions from (in alphabetic order):
   Daniel Aravena         : Magnetic Suceptibility
   Michael Atanasov       : Ab Initio Ligand Field Theory (pilot matlab implementation)
   Alexander A. Auer      : GIAO ZORA, VPT2 properties, NMR spectrum
   Ute Becker             : Parallelization
   Giovanni Bistoni       : ED, misc. LED, open-shell LED, HFLD
   Martin Brehm           : Molecular dynamics
   Dmytro Bykov           : SCF Hessian
   Vijay G. Chilkuri      : MRCI spin determinant printing, contributions to CSF-ICE
   Dipayan Datta          : RHF DLPNO-CCSD density
   Achintya Kumar Dutta   : EOM-CC, STEOM-CC
   Dmitry Ganyushin       : Spin-Orbit,Spin-Spin,Magnetic field MRCI
   Miquel Garcia          : C-PCM and meta-GGA Hessian, CC/C-PCM, Gaussian charge scheme
   Yang Guo               : DLPNO-NEVPT2, F12-NEVPT2, CIM, IAO-localization
   Andreas Hansen         : Spin unrestricted coupled pair/coupled cluster methods
   Benjamin Helmich-Paris : MC-RPA, TRAH-SCF, COSX integrals
   Lee Huntington         : MR-EOM, pCC
   Robert Izsak           : Overlap fitted RIJCOSX, COSX-SCS-MP3, EOM
   Marcus Kettner         : VPT2
   Christian Kollmar      : KDIIS, OOCD, Brueckner-CCSD(T), CCSD density, CASPT2, CASPT2-K
   Simone Kossmann        : Meta GGA functionals, TD-DFT gradient, OOMP2, MP2 Hessian
   Martin Krupicka        : Initial AUTO-CI
   Lucas Lang             : DCDCAS
   Marvin Lechner         : AUTO-CI (C++ implementation), FIC-MRCC
   Dagmar Lenk            : GEPOL surface, SMD
   Dimitrios Liakos       : Extrapolation schemes; Compound Job, initial MDCI parallelization
   Dimitrios Manganas     : Further ROCIS development; embedding schemes
   Dimitrios Pantazis     : SARC Basis sets
   Anastasios Papadopoulos: AUTO-CI, single reference methods and gradients
   Taras Petrenko         : DFT Hessian,TD-DFT gradient, ASA, ECA, R-Raman, ABS, FL, XAS/XES, NRVS
   Peter Pinski           : DLPNO-MP2, DLPNO-MP2 Gradient
   Christoph Reimann      : Effective Core Potentials
   Marius Retegan         : Local ZFS, SOC
   Christoph Riplinger    : Optimizer, TS searches, QM/MM, DLPNO-CCSD(T), (RO)-DLPNO pert. Triples
   Tobias Risthaus        : Range-separated hybrids, TD-DFT gradient, RPA, STAB
   Michael Roemelt        : Original ROCIS implementation
   Masaaki Saitow         : Open-shell DLPNO-CCSD energy and density
   Barbara Sandhoefer     : DKH picture change effects
   Avijit Sen             : IP-ROCIS
   Kantharuban Sivalingam : CASSCF convergence, NEVPT2, FIC-MRCI
   Bernardo de Souza      : ESD, SOC TD-DFT
   Georgi Stoychev        : AutoAux, RI-MP2 NMR, DLPNO-MP2 response
   Willem Van den Heuvel  : Paramagnetic NMR
   Boris Wezisla          : Elementary symmetry handling
   Frank Wennmohs         : Technical directorship


 We gratefully acknowledge several colleagues who have allowed us to
 interface, adapt or use parts of their codes:
   Stefan Grimme, W. Hujo, H. Kruse, P. Pracht,  : VdW corrections, initial TS optimization,
                  C. Bannwarth, S. Ehlert          DFT functionals, gCP, sTDA/sTD-DF
   Ed Valeev, F. Pavosevic, A. Kumar             : LibInt (2-el integral package), F12 methods
   Garnet Chan, S. Sharma, J. Yang, R. Olivares  : DMRG
   Ulf Ekstrom                                   : XCFun DFT Library
   Mihaly Kallay                                 : mrcc  (arbitrary order and MRCC methods)
   Jiri Pittner, Ondrej Demel                    : Mk-CCSD
   Frank Weinhold                                : gennbo (NPA and NBO analysis)
   Christopher J. Cramer and Donald G. Truhlar   : smd solvation model
   Lars Goerigk                                  : TD-DFT with DH, B97 family of functionals
   V. Asgeirsson, H. Jonsson                     : NEB implementation
   FAccTs GmbH                                   : IRC, NEB, NEB-TS, DLPNO-Multilevel, CI-OPT
                                                   MM, QMMM, 2- and 3-layer-ONIOM, Crystal-QMMM,
                                                   LR-CPCM, SF, NACMEs, symmetry and pop. for TD-DFT,
                                                   nearIR, NL-DFT gradient (VV10), updates on ESD,
                                                   ML-optimized integration grids
   S Lehtola, MJT Oliveira, MAL Marques          : LibXC Library
   Liviu Ungur et al                             : ANISO software


 Your calculation uses the libint2 library for the computation of 2-el integrals
 For citations please refer to: http://libint.valeyev.net

 Your ORCA version has been built with support for libXC version: 5.1.0
 For citations please refer to: https://tddft.org/programs/libxc/

 This ORCA versions uses:
   CBLAS   interface :  Fast vector & matrix operations
   LAPACKE interface :  Fast linear algebra routines
   SCALAPACK package :  Parallel linear algebra routines
   Shared memory     :  Shared parallel matrices
   BLAS/LAPACK       :  OpenBLAS 0.3.15  USE64BITINT DYNAMIC_ARCH NO_AFFINITY SkylakeX SINGLE_THREADED
        Core in use  :  SkylakeX
   Copyright (c) 2011-2014, The OpenBLAS Project


Your calculation utilizes the atom-pairwise dispersion correction
with the Becke-Johnson damping scheme (D3BJ)
Cite in your paper:
S.Grimme, S.Ehrlich, L.Goerigk, J Comput Chem, (2011), 32, 1456–1465 
S.Grimme, J.Antony, S.Ehrlich and H.Krieg, J.Chem.Phys., 132, (2010), 154104 
   

================================================================================

----- Orbital basis set information -----
Your calculation utilizes the basis: def2-TZVP
   F. Weigend and R. Ahlrichs, Phys. Chem. Chem. Phys. 7, 3297 (2005).

----- AuxJ basis set information -----
Your calculation utilizes the auxiliary basis: def2/J
   F. Weigend, Phys. Chem. Chem. Phys. 8, 1057 (2006).

================================================================================
                                        WARNINGS
                       Please study these warnings very carefully!
================================================================================


INFO   : the flag for use of the SHARK integral package has been found!

================================================================================
                                       INPUT FILE
================================================================================
NAME = ox_gs_A_orca0011.inp
|  1> ! engrad PBE0 D3BJ def2-TZVP  
|  2> %pal nprocs 8 end
|  3> %maxcore 3000
|  4>  
|  5> *xyz 0 1 
|  6> O   0.010822979479098743 0.7692029019951907 -0.03257990738029086
|  7> C   -0.6216923855337337 -0.4153245388840994 -0.10125712933288036
|  8> C   0.7382122557384714 -0.4801098132384194 0.0426216667398112
|  9> H   -1.303448966921635 -0.6740076320733449 0.9452255839490229
| 10> H   -1.2205350102914938 -0.7282857303527889 -0.9367012817920475
| 11> H   1.2400755544419522 -0.7009373216286856 -0.8317035079859452
| 12> H   1.2840719555480478 -0.7313150077167523 0.9658692673527388
| 13> *
| 14> 
| 15>                          ****END OF INPUT****
================================================================================

                     *******************************
                     * Energy+Gradient Calculation *
                     *******************************

---------------------------------
CARTESIAN COORDINATES (ANGSTROEM)
---------------------------------
  O      0.010823    0.769203   -0.032580
  C     -0.621692   -0.415325   -0.101257
  C      0.738212   -0.480110    0.042622
  H     -1.303449   -0.674008    0.945226
  H     -1.220535   -0.728286   -0.936701
  H      1.240076   -0.700937   -0.831704
  H      1.284072   -0.731315    0.965869

----------------------------
CARTESIAN COORDINATES (A.U.)
----------------------------
  NO LB      ZA    FRAG     MASS         X           Y           Z
   0 O     8.0000    0    15.999    0.020452    1.453583   -0.061567
   1 C     6.0000    0    12.011   -1.174828   -0.784850   -0.191348
   2 C     6.0000    0    12.011    1.395019   -0.907276    0.080543
   3 H     1.0000    0     1.008   -2.463162   -1.273690    1.786217
   4 H     1.0000    0     1.008   -2.306477   -1.376261   -1.770109
   5 H     1.0000    0     1.008    2.343403   -1.324580   -1.571692
   6 H     1.0000    0     1.008    2.426544   -1.381985    1.825228

--------------------------------
INTERNAL COORDINATES (ANGSTROEM)
--------------------------------
 O      0   0   0     0.000000000000     0.00000000     0.00000000
 C      1   0   0     1.344580791916     0.00000000     0.00000000
 C      2   1   0     1.369028441299    64.47136643     0.00000000
 H      2   1   3     1.275474440420   112.84307305   108.78735625
 H      2   1   3     1.074487844729   123.95113960   239.41535794
 H      3   2   1     1.032025227505   113.83714443   257.60401927
 H      3   2   1     1.101568424405   126.23520474   104.29571501

---------------------------
INTERNAL COORDINATES (A.U.)
---------------------------
 O      0   0   0     0.000000000000     0.00000000     0.00000000
 C      1   0   0     2.540889461652     0.00000000     0.00000000
 C      2   1   0     2.587088823605    64.47136643     0.00000000
 H      2   1   3     2.410297383211   112.84307305   108.78735625
 H      2   1   3     2.030487760765   123.95113960   239.41535794
 H      3   2   1     1.950245043282   113.83714443   257.60401927
 H      3   2   1     2.081662639901   126.23520474   104.29571501

---------------------
BASIS SET INFORMATION
---------------------
There are 3 groups of distinct atoms

 Group   1 Type O   : 11s6p2d1f contracted to 5s3p2d1f pattern {62111/411/11/1}
 Group   2 Type C   : 11s6p2d1f contracted to 5s3p2d1f pattern {62111/411/11/1}
 Group   3 Type H   : 5s1p contracted to 3s1p pattern {311/1}

Atom   0O    basis set group =>   1
Atom   1C    basis set group =>   2
Atom   2C    basis set group =>   2
Atom   3H    basis set group =>   3
Atom   4H    basis set group =>   3
Atom   5H    basis set group =>   3
Atom   6H    basis set group =>   3
---------------------------------
AUXILIARY/J BASIS SET INFORMATION
---------------------------------
There are 3 groups of distinct atoms

 Group   1 Type O   : 12s5p4d2f1g contracted to 6s4p3d1f1g pattern {711111/2111/211/2/1}
 Group   2 Type C   : 12s5p4d2f1g contracted to 6s4p3d1f1g pattern {711111/2111/211/2/1}
 Group   3 Type H   : 5s2p1d contracted to 3s1p1d pattern {311/2/1}

Atom   0O    basis set group =>   1
Atom   1C    basis set group =>   2
Atom   2C    basis set group =>   2
Atom   3H    basis set group =>   3
Atom   4H    basis set group =>   3
Atom   5H    basis set group =>   3
Atom   6H    basis set group =>   3


           ************************************************************
           *        Program running with 8 parallel MPI-processes     *
           *              working on a common directory               *
           ************************************************************
------------------------------------------------------------------------------
                           ORCA GTO INTEGRAL CALCULATION
                           -- RI-GTO INTEGRALS CHOSEN --
------------------------------------------------------------------------------
------------------------------------------------------------------------------
                   ___                                                        
                  /   \      - P O W E R E D   B Y -                         
                 /     \                                                     
                 |  |  |   _    _      __       _____    __    __             
                 |  |  |  | |  | |    /  \     |  _  \  |  |  /  |          
                  \  \/   | |  | |   /    \    | | | |  |  | /  /          
                 / \  \   | |__| |  /  /\  \   | |_| |  |  |/  /          
                |  |  |   |  __  | /  /__\  \  |    /   |      \           
                |  |  |   | |  | | |   __   |  |    \   |  |\   \          
                \     /   | |  | | |  |  |  |  | |\  \  |  | \   \       
                 \___/    |_|  |_| |__|  |__|  |_| \__\ |__|  \__/        
                                                                              
                      - O R C A' S   B I G   F R I E N D -                    
                                      &                                       
                       - I N T E G R A L  F E E D E R -                       
                                                                              
 v1 FN, 2020, v2 2021                                                         
------------------------------------------------------------------------------


Reading SHARK input file ox_gs_A_orca0011.SHARKINP.tmp ... ok
----------------------
SHARK INTEGRAL PACKAGE
----------------------

Number of atoms                             ...      7
Number of basis functions                   ...    117
Number of shells                            ...     49
Maximum angular momentum                    ...      3
Integral batch strategy                     ... SHARK/LIBINT Hybrid
RI-J (if used) integral strategy            ... SPLIT-RIJ (Revised 2003 algorithm where possible)
Printlevel                                  ...      1
Contraction scheme used                     ... SEGMENTED contraction
Coulomb Range Separation                    ... NOT USED
Exchange Range Separation                   ... NOT USED
Finite Nucleus Model                        ... NOT USED
Auxiliary Coulomb fitting basis             ... AVAILABLE
   # of basis functions in Aux-J            ...    191
   # of shells in Aux-J                     ...     65
   Maximum angular momentum in Aux-J        ...      4
Auxiliary J/K fitting basis                 ... NOT available
Auxiliary Correlation fitting basis         ... NOT available
Auxiliary 'external' fitting basis          ... NOT available
Integral threshold                          ...     2.500000e-11
Primitive cut-off                           ...     2.500000e-12
Primitive pair pre-selection threshold      ...     2.500000e-12

Calculating pre-screening integrals         ... done (  0.0 sec) Dimension = 49
Organizing shell pair data                  ... done (  0.0 sec)
Shell pair information
Total number of shell pairs                 ...      1225
Shell pairs after pre-screening             ...      1221
Total number of primitive shell pairs       ...      3648
Primitive shell pairs kept                  ...      3158
          la=0 lb=0:    374 shell pairs
          la=1 lb=0:    351 shell pairs
          la=1 lb=1:     91 shell pairs
          la=2 lb=0:    162 shell pairs
          la=2 lb=1:     78 shell pairs
          la=2 lb=2:     21 shell pairs
          la=3 lb=0:     81 shell pairs
          la=3 lb=1:     39 shell pairs
          la=3 lb=2:     18 shell pairs
          la=3 lb=3:      6 shell pairs

Calculating one electron integrals          ... done (  0.0 sec)
Calculating RI/J V-Matrix + Cholesky decomp.... done (  0.0 sec)
Calculating Nuclear repulsion               ... done (  0.0 sec) ENN=     76.832628663944 Eh

SHARK setup successfully completed in   0.1 seconds

Maximum memory used throughout the entire GTOINT-calculation: 14.9 MB


           ************************************************************
           *        Program running with 8 parallel MPI-processes     *
           *              working on a common directory               *
           ************************************************************
-------------------------------------------------------------------------------
                                 ORCA SCF
-------------------------------------------------------------------------------

------------
SCF SETTINGS
------------
Hamiltonian:
 Density Functional     Method          .... DFT(GTOs)
 Exchange Functional    Exchange        .... PBE
   PBE kappa parameter   XKappa         ....  0.804000
   PBE mue parameter    XMuePBE         ....  0.219520
 Correlation Functional Correlation     .... PBE
   PBE beta parameter  CBetaPBE         ....  0.066725
 LDA part of GGA corr.  LDAOpt          .... PW91-LDA
 Gradients option       PostSCFGGA      .... off
 Hybrid DFT is turned on
   Fraction HF Exchange ScalHFX         ....  0.250000
   Scaling of DF-GGA-X  ScalDFX         ....  0.750000
   Scaling of DF-GGA-C  ScalDFC         ....  1.000000
   Scaling of DF-LDA-C  ScalLDAC        ....  1.000000
   Perturbative correction              ....  0.000000
   Density functional embedding theory  .... OFF
   NL short-range parameter             ....  6.900000
 RI-approximation to the Coulomb term is turned on
   Number of AuxJ basis functions       .... 191
   RIJ-COSX (HFX calculated with COS-X)).... on


General Settings:
 Integral files         IntName         .... ox_gs_A_orca0011
 Hartree-Fock type      HFTyp           .... RHF
 Total Charge           Charge          ....    0
 Multiplicity           Mult            ....    1
 Number of Electrons    NEL             ....   24
 Basis Dimension        Dim             ....  117
 Nuclear Repulsion      ENuc            ....     76.8326286639 Eh

Convergence Acceleration:
 DIIS                   CNVDIIS         .... on
   Start iteration      DIISMaxIt       ....    12
   Startup error        DIISStart       ....  0.200000
   # of expansion vecs  DIISMaxEq       ....     5
   Bias factor          DIISBfac        ....   1.050
   Max. coefficient     DIISMaxC        ....  10.000
 Trust-Rad. Augm. Hess. CNVTRAH         .... auto
   Auto Start mean grad. ratio tolernc. ....  1.125000
   Auto Start start iteration           ....    20
   Auto Start num. interpolation iter.  ....    10
   Max. Number of Micro iterations      ....    16
   Max. Number of Macro iterations      .... Maxiter - #DIIS iter
   Number of Davidson start vectors     ....     2
   Converg. threshold I  (grad. norm)   ....   1.000e-05
   Converg. threshold II (energy diff.) ....   1.000e-08
   Grad. Scal. Fac. for Micro threshold ....   0.100
   Minimum threshold for Micro iter.    ....   0.010
   NR start threshold (gradient norm)   ....   0.001
   Initial trust radius                 ....   0.400
   Minimum AH scaling param. (alpha)    ....   1.000
   Maximum AH scaling param. (alpha)    .... 1000.000
   Orbital update algorithm             .... Taylor
   White noise on init. David. guess    .... on
   Maximum white noise                  ....   0.010
   Quad. conv. algorithm                .... NR
 SOSCF                  CNVSOSCF        .... on
   Start iteration      SOSCFMaxIt      ....   150
   Startup grad/error   SOSCFStart      ....  0.003300
 Level Shifting         CNVShift        .... on
   Level shift para.    LevelShift      ....    0.2500
   Turn off err/grad.   ShiftErr        ....    0.0010
 Zerner damping         CNVZerner       .... off
 Static damping         CNVDamp         .... on
   Fraction old density DampFac         ....    0.7000
   Max. Damping (<1)    DampMax         ....    0.9800
   Min. Damping (>=0)   DampMin         ....    0.0000
   Turn off err/grad.   DampErr         ....    0.1000
 Fernandez-Rico         CNVRico         .... off

SCF Procedure:
 Maximum # iterations   MaxIter         ....   125
 SCF integral mode      SCFMode         .... Direct
   Integral package                     .... SHARK and LIBINT hybrid scheme
 Reset frequency        DirectResetFreq ....    20
 Integral Threshold     Thresh          ....  2.500e-11 Eh
 Primitive CutOff       TCut            ....  2.500e-12 Eh

Convergence Tolerance:
 Convergence Check Mode ConvCheckMode   .... Total+1el-Energy
 Convergence forced     ConvForced      .... 0
 Energy Change          TolE            ....  1.000e-08 Eh
 1-El. energy change                    ....  1.000e-05 Eh
 Orbital Gradient       TolG            ....  1.000e-05
 Orbital Rotation angle TolX            ....  1.000e-05
 DIIS Error             TolErr          ....  5.000e-07


Diagonalization of the overlap matrix:
Smallest eigenvalue                        ... 2.046e-04
Time for diagonalization                   ...    0.001 sec
Threshold for overlap eigenvalues          ... 1.000e-08
Number of eigenvalues below threshold      ... 0
Time for construction of square roots      ...    0.001 sec
Total time needed                          ...    0.003 sec

Time for model grid setup =    0.022 sec

------------------------------
INITIAL GUESS: MODEL POTENTIAL
------------------------------
Loading Hartree-Fock densities                     ... done
Calculating cut-offs                               ... done
Initializing the effective Hamiltonian             ... done
Setting up the integral package (SHARK)            ... done
Starting the Coulomb interaction                   ... done (   0.0 sec)
Reading the grid                                   ... done
Mapping shells                                     ... done
Starting the XC term evaluation                    ... done (   0.0 sec)
  promolecular density results
     # of electrons  =     23.996684393
     EX              =    -19.570908348
     EC              =     -0.785440046
     EX+EC           =    -20.356348394
Transforming the Hamiltonian                       ... done (   0.0 sec)
Diagonalizing the Hamiltonian                      ... done (   0.0 sec)
Back transforming the eigenvectors                 ... done (   0.0 sec)
Now organizing SCF variables                       ... done
                      ------------------
                      INITIAL GUESS DONE (   0.0 sec)
                      ------------------
-------------------
DFT GRID GENERATION
-------------------

General Integration Accuracy     IntAcc      ... 4.388
Radial Grid Type                 RadialGrid  ... OptM3 with GC (2021)
Angular Grid (max. ang.)         AngularGrid ... 4 (Lebedev-302)
Angular grid pruning method      GridPruning ... 4 (adaptive)
Weight generation scheme         WeightScheme... Becke
Basis function cutoff            BFCut       ... 1.0000e-11
Integration weight cutoff        WCut        ... 1.0000e-14
Angular grids for H and He will be reduced by one unit
Partially contracted basis set               ... off
Rotationally invariant grid construction     ... off

Total number of grid points                  ...    31296
Total number of batches                      ...      493
Average number of points per batch           ...       63
Average number of grid points per atom       ...     4471
Time for grid setup =    0.111 sec

--------------------
COSX GRID GENERATION
--------------------

GRIDX 1
-------
General Integration Accuracy     IntAcc      ... 3.816
Radial Grid Type                 RadialGrid  ... OptM3 with GC (2021)
Angular Grid (max. ang.)         AngularGrid ... 1 (Lebedev-50)
Angular grid pruning method      GridPruning ... 4 (adaptive)
Weight generation scheme         WeightScheme... Becke
Basis function cutoff            BFCut       ... 1.0000e-11
Integration weight cutoff        WCut        ... 1.0000e-14
Angular grids for H and He will be reduced by one unit
Partially contracted basis set               ... on
Rotationally invariant grid construction     ... off

Total number of grid points                  ...     4039
Total number of batches                      ...       68
Average number of points per batch           ...       59
Average number of grid points per atom       ...      577
UseSFitting                                  ... on

GRIDX 2
-------
General Integration Accuracy     IntAcc      ... 4.020
Radial Grid Type                 RadialGrid  ... OptM3 with GC (2021)
Angular Grid (max. ang.)         AngularGrid ... 2 (Lebedev-110)
Angular grid pruning method      GridPruning ... 4 (adaptive)
Weight generation scheme         WeightScheme... Becke
Basis function cutoff            BFCut       ... 1.0000e-11
Integration weight cutoff        WCut        ... 1.0000e-14
Angular grids for H and He will be reduced by one unit
Partially contracted basis set               ... on
Rotationally invariant grid construction     ... off

Total number of grid points                  ...     8711
Total number of batches                      ...      140
Average number of points per batch           ...       62
Average number of grid points per atom       ...     1244
UseSFitting                                  ... on

GRIDX 3
-------
General Integration Accuracy     IntAcc      ... 4.338
Radial Grid Type                 RadialGrid  ... OptM3 with GC (2021)
Angular Grid (max. ang.)         AngularGrid ... 3 (Lebedev-194)
Angular grid pruning method      GridPruning ... 4 (adaptive)
Weight generation scheme         WeightScheme... Becke
Basis function cutoff            BFCut       ... 1.0000e-11
Integration weight cutoff        WCut        ... 1.0000e-14
Angular grids for H and He will be reduced by one unit
Partially contracted basis set               ... on
Rotationally invariant grid construction     ... off

Total number of grid points                  ...    19245
Total number of batches                      ...      304
Average number of points per batch           ...       63
Average number of grid points per atom       ...     2749
UseSFitting                                  ... on

Time for X-Grid setup             =    0.073 sec

--------------
SCF ITERATIONS
--------------
ITER       Energy         Delta-E        Max-DP      RMS-DP      [F,P]     Damp
               ***  Starting incremental Fock matrix formation  ***
  0   -153.5742194200   0.000000000000 0.03327415  0.00119908  0.1690518 0.7000
  1   -153.6064549809  -0.032235560848 0.01861321  0.00089731  0.0735111 0.7000
                               ***Turning on DIIS***
  2   -153.6196100126  -0.013155031684 0.03507178  0.00152310  0.0346452 0.0000
  3   -153.6398763420  -0.020266329388 0.01334140  0.00067885  0.0393959 0.0000
  4   -153.6445438594  -0.004667517489 0.00428807  0.00019758  0.0070417 0.0000
  5   -153.6447168531  -0.000172993699 0.00177601  0.00007726  0.0045034 0.0000
                      *** Initiating the SOSCF procedure ***
                           *** Shutting down DIIS ***
                      *** Re-Reading the Fockian *** 
                      *** Removing any level shift *** 
ITER      Energy       Delta-E        Grad      Rot      Max-DP    RMS-DP
  6   -153.64474581  -0.0000289595  0.000141  0.000141  0.001079  0.000038
               *** Restarting incremental Fock matrix formation ***
  7   -153.64473838   0.0000074329  0.000061  0.000107  0.000129  0.000006
  8   -153.64473832   0.0000000606  0.000096  0.000071  0.000087  0.000004
  9   -153.64473847  -0.0000001485  0.000013  0.000019  0.000027  0.000001
 10   -153.64473846   0.0000000033  0.000015  0.000010  0.000017  0.000001
                  ***Gradient check signals convergence***
              ***Rediagonalizing the Fockian in SOSCF/NRSCF***

               *****************************************************
               *                     SUCCESS                       *
               *           SCF CONVERGED AFTER  11 CYCLES          *
               *****************************************************

Old exchange energy                            =     -5.004693582 Eh
New exchange energy                            =     -5.004681729 Eh
Exchange energy change after final integration =      0.000011853 Eh
Total energy after final integration           =   -153.644726617 Eh
Final COS-X integration done in                =     0.257 sec

----------------
TOTAL SCF ENERGY
----------------

Total Energy       :         -153.64472662 Eh           -4180.88556 eV

Components:
Nuclear Repulsion  :           76.83262866 Eh            2090.72212 eV
Electronic Energy  :         -230.47735528 Eh           -6271.60768 eV
One Electron Energy:         -360.13747859 Eh           -9799.83901 eV
Two Electron Energy:          129.66012331 Eh            3528.23133 eV
Max COSX asymmetry :            0.00000114 Eh               0.00003 eV

Virial components:
Potential Energy   :         -306.79175038 Eh           -8348.22794 eV
Kinetic Energy     :          153.14702376 Eh            4167.34238 eV
Virial Ratio       :            2.00324984


DFT components:
N(Alpha)           :       12.000002969857 electrons
N(Beta)            :       12.000002969857 electrons
N(Total)           :       24.000005939713 electrons
E(X)               :      -14.982241250378 Eh       
E(C)               :       -0.793219183678 Eh       
E(XC)              :      -15.775460434056 Eh       
DFET-embed. en.    :        0.000000000000 Eh       

---------------
SCF CONVERGENCE
---------------

  Last Energy change         ...   -5.6287e-09  Tolerance :   1.0000e-08
  Last MAX-Density change    ...    8.8818e-16  Tolerance :   1.0000e-07
  Last RMS-Density change    ...    2.1096e-17  Tolerance :   5.0000e-09
  Last Orbital Gradient      ...    3.3942e-07  Tolerance :   1.0000e-05
  Last Orbital Rotation      ...    5.8956e-07  Tolerance :   1.0000e-05

             **** THE GBW FILE WAS UPDATED (ox_gs_A_orca0011.gbw) ****
             **** DENSITY ox_gs_A_orca0011.scfp WAS UPDATED ****
             **** ENERGY FILE WAS UPDATED (ox_gs_A_orca0011.en.tmp) ****
             **** THE GBW FILE WAS UPDATED (ox_gs_A_orca0011.gbw) ****
             **** DENSITY ox_gs_A_orca0011.scfp WAS UPDATED ****
----------------
ORBITAL ENERGIES
----------------

  NO   OCC          E(Eh)            E(eV) 
   0   2.0000     -19.229714      -523.2671 
   1   2.0000     -10.280994      -279.7601 
   2   2.0000     -10.268861      -279.4299 
   3   2.0000      -1.140661       -31.0390 
   4   2.0000      -0.719018       -19.5655 
   5   2.0000      -0.645150       -17.5554 
   6   2.0000      -0.540361       -14.7040 
   7   2.0000      -0.516732       -14.0610 
   8   2.0000      -0.424593       -11.5538 
   9   2.0000      -0.378020       -10.2864 
  10   2.0000      -0.345345        -9.3973 
  11   2.0000      -0.288693        -7.8557 
  12   0.0000       0.053596         1.4584 
  13   0.0000       0.072217         1.9651 
  14   0.0000       0.087728         2.3872 
  15   0.0000       0.091892         2.5005 
  16   0.0000       0.119103         3.2409 
  17   0.0000       0.151878         4.1328 
  18   0.0000       0.189610         5.1595 
  19   0.0000       0.226212         6.1555 
  20   0.0000       0.266835         7.2609 
  21   0.0000       0.273274         7.4362 
  22   0.0000       0.293132         7.9765 
  23   0.0000       0.347994         9.4694 
  24   0.0000       0.367231         9.9929 
  25   0.0000       0.385513        10.4903 
  26   0.0000       0.410854        11.1799 
  27   0.0000       0.435968        11.8633 
  28   0.0000       0.450151        12.2492 
  29   0.0000       0.469507        12.7759 
  30   0.0000       0.514054        13.9881 
  31   0.0000       0.523779        14.2528 
  32   0.0000       0.536329        14.5943 
  33   0.0000       0.690547        18.7907 
  34   0.0000       0.708479        19.2787 
  35   0.0000       0.743161        20.2224 
  36   0.0000       0.827001        22.5038 
  37   0.0000       0.866583        23.5809 
  38   0.0000       0.900756        24.5108 
  39   0.0000       0.951564        25.8934 
  40   0.0000       1.024450        27.8767 
  41   0.0000       1.056383        28.7457 
  42   0.0000       1.094539        29.7839 
  43   0.0000       1.107727        30.1428 
  44   0.0000       1.185330        32.2545 
  45   0.0000       1.367907        37.2226 
  46   0.0000       1.452944        39.5366 
  47   0.0000       1.490084        40.5472 
  48   0.0000       1.517129        41.2832 
  49   0.0000       1.532550        41.7028 
  50   0.0000       1.557602        42.3845 
  51   0.0000       1.607488        43.7420 
  52   0.0000       1.659189        45.1488 
  53   0.0000       1.689866        45.9836 
  54   0.0000       1.750516        47.6340 
  55   0.0000       1.788756        48.6745 
  56   0.0000       1.821159        49.5563 
  57   0.0000       1.902562        51.7714 
  58   0.0000       1.952711        53.1360 
  59   0.0000       1.988560        54.1115 
  60   0.0000       2.106058        57.3088 
  61   0.0000       2.151361        58.5415 
  62   0.0000       2.170144        59.0526 
  63   0.0000       2.278226        61.9937 
  64   0.0000       2.299303        62.5672 
  65   0.0000       2.388213        64.9866 
  66   0.0000       2.428035        66.0702 
  67   0.0000       2.471924        67.2645 
  68   0.0000       2.556180        69.5572 
  69   0.0000       2.576823        70.1189 
  70   0.0000       2.660929        72.4076 
  71   0.0000       2.669603        72.6436 
  72   0.0000       2.699834        73.4662 
  73   0.0000       2.742116        74.6168 
  74   0.0000       2.775206        75.5172 
  75   0.0000       2.789867        75.9161 
  76   0.0000       2.869017        78.0699 
  77   0.0000       2.946296        80.1728 
  78   0.0000       3.001210        81.6671 
  79   0.0000       3.019297        82.1593 
  80   0.0000       3.064303        83.3839 
  81   0.0000       3.082591        83.8816 
  82   0.0000       3.138116        85.3925 
  83   0.0000       3.268288        88.9346 
  84   0.0000       3.334335        90.7319 
  85   0.0000       3.391194        92.2791 
  86   0.0000       3.400378        92.5290 
  87   0.0000       3.443032        93.6897 
  88   0.0000       3.571876        97.1957 
  89   0.0000       3.625284        98.6490 
  90   0.0000       3.662936        99.6736 
  91   0.0000       3.760136       102.3185 
  92   0.0000       3.906903       106.3122 
  93   0.0000       4.074482       110.8723 
  94   0.0000       4.156716       113.1100 
  95   0.0000       4.213947       114.6673 
  96   0.0000       4.263590       116.0182 
  97   0.0000       4.318598       117.5150 
  98   0.0000       4.473108       121.7194 
  99   0.0000       4.567494       124.2878 
 100   0.0000       4.738215       128.9334 
 101   0.0000       4.853735       132.0768 
 102   0.0000       5.311440       144.5316 
 103   0.0000       5.446233       148.1995 
 104   0.0000       5.710275       155.3845 
 105   0.0000       5.790126       157.5573 
 106   0.0000       5.882479       160.0704 
 107   0.0000       5.943654       161.7351 
 108   0.0000       6.119300       166.5146 
 109   0.0000       6.593216       179.4105 
 110   0.0000       6.618657       180.1028 
 111   0.0000       6.823598       185.6795 
 112   0.0000       6.971144       189.6945 
 113   0.0000       7.161209       194.8664 
 114   0.0000      22.323323       607.4485 
 115   0.0000      22.646622       616.2459 
 116   0.0000      43.881035      1194.0637 

                    ********************************
                    * MULLIKEN POPULATION ANALYSIS *
                    ********************************

-----------------------
MULLIKEN ATOMIC CHARGES
-----------------------
   0 O :   -0.307334
   1 C :   -0.037427
   2 C :   -0.079197
   3 H :    0.067752
   4 H :    0.119642
   5 H :    0.109146
   6 H :    0.127418
Sum of atomic charges:    0.0000000

--------------------------------
MULLIKEN REDUCED ORBITAL CHARGES
--------------------------------
  0 O s       :     3.855951  s :     3.855951
      pz      :     1.805173  p :     4.402563
      px      :     1.336692
      py      :     1.260697
      dz2     :     0.005954  d :     0.046330
      dxz     :     0.002700
      dyz     :     0.008042
      dx2y2   :     0.013562
      dxy     :     0.016072
      f0      :     0.000306  f :     0.002491
      f+1     :     0.000191
      f-1     :     0.000496
      f+2     :     0.000129
      f-2     :     0.000222
      f+3     :     0.000438
      f-3     :     0.000709
  1 C s       :     3.184372  s :     3.184372
      pz      :     1.028530  p :     2.701181
      px      :     0.918448
      py      :     0.754204
      dz2     :     0.004571  d :     0.137925
      dxz     :     0.033199
      dyz     :     0.038399
      dx2y2   :     0.035460
      dxy     :     0.026296
      f0      :     0.001828  f :     0.013949
      f+1     :     0.001340
      f-1     :     0.000873
      f+2     :     0.001992
      f-2     :     0.002033
      f+3     :     0.001999
      f-3     :     0.003885
  2 C s       :     3.206035  s :     3.206035
      pz      :     1.046263  p :     2.749115
      px      :     0.939105
      py      :     0.763747
      dz2     :     0.006111  d :     0.112388
      dxz     :     0.026329
      dyz     :     0.028829
      dx2y2   :     0.029061
      dxy     :     0.022057
      f0      :     0.001465  f :     0.011659
      f+1     :     0.001303
      f-1     :     0.000644
      f+2     :     0.001394
      f-2     :     0.001671
      f+3     :     0.002090
      f-3     :     0.003092
  3 H s       :     0.918146  s :     0.918146
      pz      :     0.007474  p :     0.014102
      px      :     0.004568
      py      :     0.002060
  4 H s       :     0.859027  s :     0.859027
      pz      :     0.009654  p :     0.021331
      px      :     0.007648
      py      :     0.004029
  5 H s       :     0.867711  s :     0.867711
      pz      :     0.011201  p :     0.023143
      px      :     0.007090
      py      :     0.004853
  6 H s       :     0.852099  s :     0.852099
      pz      :     0.010544  p :     0.020483
      px      :     0.006261
      py      :     0.003677


                     *******************************
                     * LOEWDIN POPULATION ANALYSIS *
                     *******************************

----------------------
LOEWDIN ATOMIC CHARGES
----------------------
   0 O :    0.184389
   1 C :   -0.393047
   2 C :   -0.271306
   3 H :    0.126549
   4 H :    0.111858
   5 H :    0.113374
   6 H :    0.128184

-------------------------------
LOEWDIN REDUCED ORBITAL CHARGES
-------------------------------
  0 O s       :     3.353111  s :     3.353111
      pz      :     1.679243  p :     4.353756
      px      :     1.306107
      py      :     1.368406
      dz2     :     0.012080  d :     0.100865
      dxz     :     0.008251
      dyz     :     0.017786
      dx2y2   :     0.037090
      dxy     :     0.025659
      f0      :     0.000753  f :     0.007879
      f+1     :     0.000261
      f-1     :     0.001064
      f+2     :     0.000265
      f-2     :     0.001001
      f+3     :     0.001324
      f-3     :     0.003210
  1 C s       :     2.802628  s :     2.802628
      pz      :     1.011171  p :     2.896945
      px      :     1.049648
      py      :     0.836127
      dz2     :     0.051178  d :     0.596870
      dxz     :     0.166287
      dyz     :     0.114344
      dx2y2   :     0.135086
      dxy     :     0.129976
      f0      :     0.012110  f :     0.096603
      f+1     :     0.006892
      f-1     :     0.007035
      f+2     :     0.013210
      f-2     :     0.009427
      f+3     :     0.017023
      f-3     :     0.030907
  2 C s       :     2.794810  s :     2.794810
      pz      :     1.040509  p :     2.913861
      px      :     1.078622
      py      :     0.794729
      dz2     :     0.052425  d :     0.485839
      dxz     :     0.147397
      dyz     :     0.080721
      dx2y2   :     0.104772
      dxy     :     0.100525
      f0      :     0.010269  f :     0.076796
      f+1     :     0.006736
      f-1     :     0.005941
      f+2     :     0.009156
      f-2     :     0.006520
      f+3     :     0.015107
      f-3     :     0.023067
  3 H s       :     0.838383  s :     0.838383
      pz      :     0.020165  p :     0.035068
      px      :     0.009852
      py      :     0.005050
  4 H s       :     0.825206  s :     0.825206
      pz      :     0.030548  p :     0.062936
      px      :     0.020068
      py      :     0.012320
  5 H s       :     0.816875  s :     0.816875
      pz      :     0.034736  p :     0.069751
      px      :     0.020357
      py      :     0.014658
  6 H s       :     0.813384  s :     0.813384
      pz      :     0.031004  p :     0.058432
      px      :     0.016565
      py      :     0.010863


                      *****************************
                      * MAYER POPULATION ANALYSIS *
                      *****************************

  NA   - Mulliken gross atomic population
  ZA   - Total nuclear charge
  QA   - Mulliken gross atomic charge
  VA   - Mayer's total valence
  BVA  - Mayer's bonded valence
  FA   - Mayer's free valence

  ATOM       NA         ZA         QA         VA         BVA        FA
  0 O      8.3073     8.0000    -0.3073     2.0331     2.0331     0.0000
  1 C      6.0374     6.0000    -0.0374     3.9965     3.9965     0.0000
  2 C      6.0792     6.0000    -0.0792     3.9942     3.9942    -0.0000
  3 H      0.9322     1.0000     0.0678     0.9645     0.9645     0.0000
  4 H      0.8804     1.0000     0.1196     0.9487     0.9487    -0.0000
  5 H      0.8909     1.0000     0.1091     0.9617     0.9617    -0.0000
  6 H      0.8726     1.0000     0.1274     0.9605     0.9605     0.0000

  Mayer bond orders larger than 0.100000
B(  0-O ,  1-C ) :   1.0190 B(  0-O ,  2-C ) :   0.9695 B(  1-C ,  2-C ) :   1.0941 
B(  1-C ,  3-H ) :   0.9283 B(  1-C ,  4-H ) :   0.9431 B(  2-C ,  5-H ) :   0.9606 
B(  2-C ,  6-H ) :   0.9452 

-------
TIMINGS
-------

Total SCF time: 0 days 0 hours 0 min 2 sec 

Total time                  ....       2.512 sec
Sum of individual times     ....       2.320 sec  ( 92.4%)

Fock matrix formation       ....       2.054 sec  ( 81.8%)
  Split-RI-J                ....       0.228 sec  ( 11.1% of F)
  Chain of spheres X        ....       1.400 sec  ( 68.2% of F)
  XC integration            ....       0.403 sec  ( 19.6% of F)
    Basis function eval.    ....       0.103 sec  ( 25.5% of XC)
    Density eval.           ....       0.078 sec  ( 19.4% of XC)
    XC-Functional eval.     ....       0.023 sec  (  5.7% of XC)
    XC-Potential eval.      ....       0.141 sec  ( 34.9% of XC)
Diagonalization             ....       0.015 sec  (  0.6%)
Density matrix formation    ....       0.001 sec  (  0.1%)
Population analysis         ....       0.004 sec  (  0.2%)
Initial guess               ....       0.017 sec  (  0.7%)
Orbital Transformation      ....       0.000 sec  (  0.0%)
Orbital Orthonormalization  ....       0.000 sec  (  0.0%)
DIIS solution               ....       0.013 sec  (  0.5%)
SOSCF solution              ....       0.011 sec  (  0.4%)
Grid generation             ....       0.205 sec  (  8.2%)

Maximum memory used throughout the entire SCF-calculation: 61.1 MB


-------------------------------------------------------------------------------
                          DFT DISPERSION CORRECTION                            
                                                                               
                              DFTD3 V3.1  Rev 1                                
                          USING Becke-Johnson damping                          
-------------------------------------------------------------------------------
The PBE0 functional is recognized
Active option DFTDOPT                   ...         4   

molecular C6(AA) [au] = 352.453593 


            DFT-D V3
 parameters
 s6 scaling factor         :     1.0000 
 a1 scaling factor         :     0.4145 
 s8 scaling factor         :     1.2177 
 a2 scaling factor         :     4.8593 
 ad hoc parameters k1-k3   :    16.0000     1.3333    -4.0000 

 Edisp/kcal,au: -1.518153772453  -0.002419331776 
 E6   /kcal   :  -0.995600364 
 E8   /kcal   :  -0.522553409 
 % E8         :  34.420321447 

-------------------------   ----------------
Dispersion correction           -0.002419332
-------------------------   ----------------


-------------------------   --------------------
FINAL SINGLE POINT ENERGY      -153.647145948893
-------------------------   --------------------



           ************************************************************
           *        Program running with 8 parallel MPI-processes     *
           *              working on a common directory               *
           ************************************************************
------------------------------------------------------------------------------
                         ORCA SCF GRADIENT CALCULATION
------------------------------------------------------------------------------

 ... reading COSX grid (gridx3)
Gradient of the Kohn-Sham DFT energy:
Kohn-Sham wavefunction type      ... RKS
Hartree-Fock exchange scaling    ...    0.250
Number of operators              ...    1
Number of atoms                  ...    7
Basis set dimensions             ...  117
Integral neglect threshold       ... 2.5e-11
Integral primitive cutoff        ... 2.5e-12
SHARK Integral package           ... ON

Nuc. rep. gradient       (SHARK) ... done (  0.0 sec)
HCore & Overlap gradient (SHARK) ... done (  0.0 sec)
RI-J gradient            (SHARK) ... done (  0.1 sec)
COSX-gradient                    ... done (  0.3 sec)
Exchange-correlation gradient    ... done
Dispersion correction            ... done

------------------
CARTESIAN GRADIENT
------------------

   1   O   :   -0.026002831   -0.020434893    0.004318322
   2   C   :    0.129373180    0.042150304   -0.085607611
   3   C   :   -0.048588821   -0.007191144   -0.027225898
   4   H   :   -0.033574658   -0.012113407    0.053838141
   5   H   :   -0.003110730   -0.002466762    0.015611101
   6   H   :   -0.029574343    0.005621161    0.033768142
   7   H   :    0.011514469   -0.005646664    0.005258041

Difference to translation invariance:
           :    0.0000362665   -0.0000814056   -0.0000397627

Difference to rotation invariance:
           :   -0.0000872172    0.0000105812   -0.0000248581

Norm of the cartesian gradient     ...    0.1917800661
RMS gradient                       ...    0.0418498414
MAX gradient                       ...    0.1293731804

-------
TIMINGS
-------

Total SCF gradient time            ...        0.688 sec

One electron gradient       ....       0.009 sec  (  1.4%)
RI-J Coulomb gradient       ....       0.075 sec  ( 10.9%)
COSX gradient               ....       0.307 sec  ( 44.7%)
XC gradient                 ....       0.154 sec  ( 22.4%)

Maximum memory used throughout the entire SCFGRAD-calculation: 35.9 MB

                            ***************************************
                            *     ORCA property calculations      *
                            ***************************************

                                    ---------------------
                                    Active property flags
                                    ---------------------
   (+) Dipole Moment


------------------------------------------------------------------------------
                       ORCA ELECTRIC PROPERTIES CALCULATION
------------------------------------------------------------------------------

Dipole Moment Calculation                       ... on
Quadrupole Moment Calculation                   ... off
Polarizability Calculation                      ... off
GBWName                                         ... ox_gs_A_orca0011.gbw
Electron density                                ... ox_gs_A_orca0011.scfp
The origin for moment calculation is the CENTER OF MASS  = ( 0.067470, -0.056015 -0.046401)

-------------
DIPOLE MOMENT
-------------
                                X             Y             Z
Electronic contribution:      0.25823       1.81438      -0.30640
Nuclear contribution   :     -0.13420      -2.53625       0.22589
                        -----------------------------------------
Total Dipole Moment    :      0.12403      -0.72188      -0.08051
                        -----------------------------------------
Magnitude (a.u.)       :      0.73687
Magnitude (Debye)      :      1.87296



--------------------
Rotational spectrum 
--------------------
 
Rotational constants in cm-1:     0.878874     0.777917     0.496191 
Rotational constants in MHz : 26347.974234 23321.352229 14875.441963 

 Dipole components along the rotational axes: 
x,y,z [a.u.] :    -0.442637    -0.580500    -0.100316 
x,y,z [Debye]:    -1.125093    -1.475513    -0.254983 

 

Timings for individual modules:

Sum of individual times         ...        3.933 sec (=   0.066 min)
GTO integral calculation        ...        0.317 sec (=   0.005 min)   8.1 %
SCF iterations                  ...        2.700 sec (=   0.045 min)  68.7 %
SCF Gradient evaluation         ...        0.915 sec (=   0.015 min)  23.3 %
                             ****ORCA TERMINATED NORMALLY****
TOTAL RUN TIME: 0 days 0 hours 0 minutes 4 seconds 205 msec
