
                                 *****************
                                 * O   R   C   A *
                                 *****************

                                            #,                                       
                                            ###                                      
                                            ####                                     
                                            #####                                    
                                            ######                                   
                                           ########,                                 
                                     ,,################,,,,,                         
                               ,,#################################,,                 
                          ,,##########################################,,             
                       ,#########################################, ''#####,          
                    ,#############################################,,   '####,        
                  ,##################################################,,,,####,       
                ,###########''''           ''''###############################       
              ,#####''   ,,,,##########,,,,          '''####'''          '####       
            ,##' ,,,,###########################,,,                        '##       
           ' ,,###''''                  '''############,,,                           
         ,,##''                                '''############,,,,        ,,,,,,###''
      ,#''                                            '''#######################'''  
     '                                                          ''''####''''         
             ,#######,   #######,   ,#######,      ##                                
            ,#'     '#,  ##    ##  ,#'     '#,    #''#        ######   ,####,        
            ##       ##  ##   ,#'  ##            #'  '#       #        #'  '#        
            ##       ##  #######   ##           ,######,      #####,   #    #        
            '#,     ,#'  ##    ##  '#,     ,#' ,#      #,         ##   #,  ,#        
             '#######'   ##     ##  '#######'  #'      '#     #####' # '####'        



                  #######################################################
                  #                        -***-                        #
                  #          Department of theory and spectroscopy      #
                  #    Directorship and core code : Frank Neese         #
                  #        Max Planck Institute fuer Kohlenforschung    #
                  #                Kaiser Wilhelm Platz 1               #
                  #                 D-45470 Muelheim/Ruhr               #
                  #                      Germany                        #
                  #                                                     #
                  #                  All rights reserved                #
                  #                        -***-                        #
                  #######################################################


                         Program Version 5.0.2 -  RELEASE  -


 With contributions from (in alphabetic order):
   Daniel Aravena         : Magnetic Suceptibility
   Michael Atanasov       : Ab Initio Ligand Field Theory (pilot matlab implementation)
   Alexander A. Auer      : GIAO ZORA, VPT2 properties, NMR spectrum
   Ute Becker             : Parallelization
   Giovanni Bistoni       : ED, misc. LED, open-shell LED, HFLD
   Martin Brehm           : Molecular dynamics
   Dmytro Bykov           : SCF Hessian
   Vijay G. Chilkuri      : MRCI spin determinant printing, contributions to CSF-ICE
   Dipayan Datta          : RHF DLPNO-CCSD density
   Achintya Kumar Dutta   : EOM-CC, STEOM-CC
   Dmitry Ganyushin       : Spin-Orbit,Spin-Spin,Magnetic field MRCI
   Miquel Garcia          : C-PCM and meta-GGA Hessian, CC/C-PCM, Gaussian charge scheme
   Yang Guo               : DLPNO-NEVPT2, F12-NEVPT2, CIM, IAO-localization
   Andreas Hansen         : Spin unrestricted coupled pair/coupled cluster methods
   Benjamin Helmich-Paris : MC-RPA, TRAH-SCF, COSX integrals
   Lee Huntington         : MR-EOM, pCC
   Robert Izsak           : Overlap fitted RIJCOSX, COSX-SCS-MP3, EOM
   Marcus Kettner         : VPT2
   Christian Kollmar      : KDIIS, OOCD, Brueckner-CCSD(T), CCSD density, CASPT2, CASPT2-K
   Simone Kossmann        : Meta GGA functionals, TD-DFT gradient, OOMP2, MP2 Hessian
   Martin Krupicka        : Initial AUTO-CI
   Lucas Lang             : DCDCAS
   Marvin Lechner         : AUTO-CI (C++ implementation), FIC-MRCC
   Dagmar Lenk            : GEPOL surface, SMD
   Dimitrios Liakos       : Extrapolation schemes; Compound Job, initial MDCI parallelization
   Dimitrios Manganas     : Further ROCIS development; embedding schemes
   Dimitrios Pantazis     : SARC Basis sets
   Anastasios Papadopoulos: AUTO-CI, single reference methods and gradients
   Taras Petrenko         : DFT Hessian,TD-DFT gradient, ASA, ECA, R-Raman, ABS, FL, XAS/XES, NRVS
   Peter Pinski           : DLPNO-MP2, DLPNO-MP2 Gradient
   Christoph Reimann      : Effective Core Potentials
   Marius Retegan         : Local ZFS, SOC
   Christoph Riplinger    : Optimizer, TS searches, QM/MM, DLPNO-CCSD(T), (RO)-DLPNO pert. Triples
   Tobias Risthaus        : Range-separated hybrids, TD-DFT gradient, RPA, STAB
   Michael Roemelt        : Original ROCIS implementation
   Masaaki Saitow         : Open-shell DLPNO-CCSD energy and density
   Barbara Sandhoefer     : DKH picture change effects
   Avijit Sen             : IP-ROCIS
   Kantharuban Sivalingam : CASSCF convergence, NEVPT2, FIC-MRCI
   Bernardo de Souza      : ESD, SOC TD-DFT
   Georgi Stoychev        : AutoAux, RI-MP2 NMR, DLPNO-MP2 response
   Willem Van den Heuvel  : Paramagnetic NMR
   Boris Wezisla          : Elementary symmetry handling
   Frank Wennmohs         : Technical directorship


 We gratefully acknowledge several colleagues who have allowed us to
 interface, adapt or use parts of their codes:
   Stefan Grimme, W. Hujo, H. Kruse, P. Pracht,  : VdW corrections, initial TS optimization,
                  C. Bannwarth, S. Ehlert          DFT functionals, gCP, sTDA/sTD-DF
   Ed Valeev, F. Pavosevic, A. Kumar             : LibInt (2-el integral package), F12 methods
   Garnet Chan, S. Sharma, J. Yang, R. Olivares  : DMRG
   Ulf Ekstrom                                   : XCFun DFT Library
   Mihaly Kallay                                 : mrcc  (arbitrary order and MRCC methods)
   Jiri Pittner, Ondrej Demel                    : Mk-CCSD
   Frank Weinhold                                : gennbo (NPA and NBO analysis)
   Christopher J. Cramer and Donald G. Truhlar   : smd solvation model
   Lars Goerigk                                  : TD-DFT with DH, B97 family of functionals
   V. Asgeirsson, H. Jonsson                     : NEB implementation
   FAccTs GmbH                                   : IRC, NEB, NEB-TS, DLPNO-Multilevel, CI-OPT
                                                   MM, QMMM, 2- and 3-layer-ONIOM, Crystal-QMMM,
                                                   LR-CPCM, SF, NACMEs, symmetry and pop. for TD-DFT,
                                                   nearIR, NL-DFT gradient (VV10), updates on ESD,
                                                   ML-optimized integration grids
   S Lehtola, MJT Oliveira, MAL Marques          : LibXC Library
   Liviu Ungur et al                             : ANISO software


 Your calculation uses the libint2 library for the computation of 2-el integrals
 For citations please refer to: http://libint.valeyev.net

 Your ORCA version has been built with support for libXC version: 5.1.0
 For citations please refer to: https://tddft.org/programs/libxc/

 This ORCA versions uses:
   CBLAS   interface :  Fast vector & matrix operations
   LAPACKE interface :  Fast linear algebra routines
   SCALAPACK package :  Parallel linear algebra routines
   Shared memory     :  Shared parallel matrices
   BLAS/LAPACK       :  OpenBLAS 0.3.15  USE64BITINT DYNAMIC_ARCH NO_AFFINITY SkylakeX SINGLE_THREADED
        Core in use  :  SkylakeX
   Copyright (c) 2011-2014, The OpenBLAS Project


Your calculation utilizes the atom-pairwise dispersion correction
with the Becke-Johnson damping scheme (D3BJ)
Cite in your paper:
S.Grimme, S.Ehrlich, L.Goerigk, J Comput Chem, (2011), 32, 1456–1465 
S.Grimme, J.Antony, S.Ehrlich and H.Krieg, J.Chem.Phys., 132, (2010), 154104 
   

================================================================================

----- Orbital basis set information -----
Your calculation utilizes the basis: def2-TZVP
   F. Weigend and R. Ahlrichs, Phys. Chem. Chem. Phys. 7, 3297 (2005).

----- AuxJ basis set information -----
Your calculation utilizes the auxiliary basis: def2/J
   F. Weigend, Phys. Chem. Chem. Phys. 8, 1057 (2006).

================================================================================
                                        WARNINGS
                       Please study these warnings very carefully!
================================================================================


INFO   : the flag for use of the SHARK integral package has been found!

================================================================================
                                       INPUT FILE
================================================================================
NAME = ox_gs_A_orca0047.inp
|  1> ! engrad PBE0 D3BJ def2-TZVP  
|  2> %pal nprocs 8 end
|  3> %maxcore 3000
|  4>  
|  5> *xyz 0 1 
|  6> O   0.043868164528783574 0.7558761013085169 0.001344401949726539
|  7> C   -0.7184704496026224 -0.5491072334212146 -0.012358869126029848
|  8> C   0.6947903276001101 -0.4971014904947458 -0.014055014644297745
|  9> H   -1.1739386036575237 -0.6362286669366495 0.8914172705108602
| 10> H   -1.235193630932192 -0.5983031381706999 -0.8737445358543616
| 11> H   1.2668043384960086 -0.7006176988852787 -0.8850650543193205
| 12> H   1.2834971392710874 -0.6235111489986134 0.9517347600840984
| 13> *
| 14> 
| 15>                          ****END OF INPUT****
================================================================================

                     *******************************
                     * Energy+Gradient Calculation *
                     *******************************

---------------------------------
CARTESIAN COORDINATES (ANGSTROEM)
---------------------------------
  O      0.043868    0.755876    0.001344
  C     -0.718470   -0.549107   -0.012359
  C      0.694790   -0.497101   -0.014055
  H     -1.173939   -0.636229    0.891417
  H     -1.235194   -0.598303   -0.873745
  H      1.266804   -0.700618   -0.885065
  H      1.283497   -0.623511    0.951735

----------------------------
CARTESIAN COORDINATES (A.U.)
----------------------------
  NO LB      ZA    FRAG     MASS         X           Y           Z
   0 O     8.0000    0    15.999    0.082899    1.428399    0.002541
   1 C     6.0000    0    12.011   -1.357712   -1.037662   -0.023355
   2 C     6.0000    0    12.011    1.312963   -0.939386   -0.026560
   3 H     1.0000    0     1.008   -2.218422   -1.202298    1.684535
   4 H     1.0000    0     1.008   -2.334178   -1.130629   -1.651138
   5 H     1.0000    0     1.008    2.393913   -1.323976   -1.672531
   6 H     1.0000    0     1.008    2.425458   -1.178265    1.798518

--------------------------------
INTERNAL COORDINATES (ANGSTROEM)
--------------------------------
 O      0   0   0     0.000000000000     0.00000000     0.00000000
 C      1   0   0     1.511399830011     0.00000000     0.00000000
 C      1   2   0     1.412051574826    57.74122868     0.00000000
 H      2   1   3     1.015801503303   106.98654524   111.48593616
 H      2   1   3     1.005687998344   108.00859570   244.27170807
 H      3   1   2     1.061733189155   115.30196871   115.31605775
 H      3   1   2     1.138114669460   109.13222198   244.20715463

---------------------------
INTERNAL COORDINATES (A.U.)
---------------------------
 O      0   0   0     0.000000000000     0.00000000     0.00000000
 C      1   0   0     2.856131757575     0.00000000     0.00000000
 C      1   2   0     2.668390763394    57.74122868     0.00000000
 H      2   1   3     1.919586647668   106.98654524   111.48593616
 H      2   1   3     1.900474893041   108.00859570   244.27170807
 H      3   1   2     2.006384954798   115.30196871   115.31605775
 H      3   1   2     2.150725034278   109.13222198   244.20715463

---------------------
BASIS SET INFORMATION
---------------------
There are 3 groups of distinct atoms

 Group   1 Type O   : 11s6p2d1f contracted to 5s3p2d1f pattern {62111/411/11/1}
 Group   2 Type C   : 11s6p2d1f contracted to 5s3p2d1f pattern {62111/411/11/1}
 Group   3 Type H   : 5s1p contracted to 3s1p pattern {311/1}

Atom   0O    basis set group =>   1
Atom   1C    basis set group =>   2
Atom   2C    basis set group =>   2
Atom   3H    basis set group =>   3
Atom   4H    basis set group =>   3
Atom   5H    basis set group =>   3
Atom   6H    basis set group =>   3
---------------------------------
AUXILIARY/J BASIS SET INFORMATION
---------------------------------
There are 3 groups of distinct atoms

 Group   1 Type O   : 12s5p4d2f1g contracted to 6s4p3d1f1g pattern {711111/2111/211/2/1}
 Group   2 Type C   : 12s5p4d2f1g contracted to 6s4p3d1f1g pattern {711111/2111/211/2/1}
 Group   3 Type H   : 5s2p1d contracted to 3s1p1d pattern {311/2/1}

Atom   0O    basis set group =>   1
Atom   1C    basis set group =>   2
Atom   2C    basis set group =>   2
Atom   3H    basis set group =>   3
Atom   4H    basis set group =>   3
Atom   5H    basis set group =>   3
Atom   6H    basis set group =>   3


           ************************************************************
           *        Program running with 8 parallel MPI-processes     *
           *              working on a common directory               *
           ************************************************************
------------------------------------------------------------------------------
                           ORCA GTO INTEGRAL CALCULATION
                           -- RI-GTO INTEGRALS CHOSEN --
------------------------------------------------------------------------------
------------------------------------------------------------------------------
                   ___                                                        
                  /   \      - P O W E R E D   B Y -                         
                 /     \                                                     
                 |  |  |   _    _      __       _____    __    __             
                 |  |  |  | |  | |    /  \     |  _  \  |  |  /  |          
                  \  \/   | |  | |   /    \    | | | |  |  | /  /          
                 / \  \   | |__| |  /  /\  \   | |_| |  |  |/  /          
                |  |  |   |  __  | /  /__\  \  |    /   |      \           
                |  |  |   | |  | | |   __   |  |    \   |  |\   \          
                \     /   | |  | | |  |  |  |  | |\  \  |  | \   \       
                 \___/    |_|  |_| |__|  |__|  |_| \__\ |__|  \__/        
                                                                              
                      - O R C A' S   B I G   F R I E N D -                    
                                      &                                       
                       - I N T E G R A L  F E E D E R -                       
                                                                              
 v1 FN, 2020, v2 2021                                                         
------------------------------------------------------------------------------


Reading SHARK input file ox_gs_A_orca0047.SHARKINP.tmp ... ok
----------------------
SHARK INTEGRAL PACKAGE
----------------------

Number of atoms                             ...      7
Number of basis functions                   ...    117
Number of shells                            ...     49
Maximum angular momentum                    ...      3
Integral batch strategy                     ... SHARK/LIBINT Hybrid
RI-J (if used) integral strategy            ... SPLIT-RIJ (Revised 2003 algorithm where possible)
Printlevel                                  ...      1
Contraction scheme used                     ... SEGMENTED contraction
Coulomb Range Separation                    ... NOT USED
Exchange Range Separation                   ... NOT USED
Finite Nucleus Model                        ... NOT USED
Auxiliary Coulomb fitting basis             ... AVAILABLE
   # of basis functions in Aux-J            ...    191
   # of shells in Aux-J                     ...     65
   Maximum angular momentum in Aux-J        ...      4
Auxiliary J/K fitting basis                 ... NOT available
Auxiliary Correlation fitting basis         ... NOT available
Auxiliary 'external' fitting basis          ... NOT available
Integral threshold                          ...     2.500000e-11
Primitive cut-off                           ...     2.500000e-12
Primitive pair pre-selection threshold      ...     2.500000e-12

Calculating pre-screening integrals         ... done (  0.0 sec) Dimension = 49
Organizing shell pair data                  ... done (  0.0 sec)
Shell pair information
Total number of shell pairs                 ...      1225
Shell pairs after pre-screening             ...      1220
Total number of primitive shell pairs       ...      3648
Primitive shell pairs kept                  ...      3151
          la=0 lb=0:    373 shell pairs
          la=1 lb=0:    351 shell pairs
          la=1 lb=1:     91 shell pairs
          la=2 lb=0:    162 shell pairs
          la=2 lb=1:     78 shell pairs
          la=2 lb=2:     21 shell pairs
          la=3 lb=0:     81 shell pairs
          la=3 lb=1:     39 shell pairs
          la=3 lb=2:     18 shell pairs
          la=3 lb=3:      6 shell pairs

Calculating one electron integrals          ... done (  0.0 sec)
Calculating RI/J V-Matrix + Cholesky decomp.... done (  0.0 sec)
Calculating Nuclear repulsion               ... done (  0.0 sec) ENN=     75.771068192441 Eh

SHARK setup successfully completed in   0.1 seconds

Maximum memory used throughout the entire GTOINT-calculation: 14.9 MB


           ************************************************************
           *        Program running with 8 parallel MPI-processes     *
           *              working on a common directory               *
           ************************************************************
-------------------------------------------------------------------------------
                                 ORCA SCF
-------------------------------------------------------------------------------

------------
SCF SETTINGS
------------
Hamiltonian:
 Density Functional     Method          .... DFT(GTOs)
 Exchange Functional    Exchange        .... PBE
   PBE kappa parameter   XKappa         ....  0.804000
   PBE mue parameter    XMuePBE         ....  0.219520
 Correlation Functional Correlation     .... PBE
   PBE beta parameter  CBetaPBE         ....  0.066725
 LDA part of GGA corr.  LDAOpt          .... PW91-LDA
 Gradients option       PostSCFGGA      .... off
 Hybrid DFT is turned on
   Fraction HF Exchange ScalHFX         ....  0.250000
   Scaling of DF-GGA-X  ScalDFX         ....  0.750000
   Scaling of DF-GGA-C  ScalDFC         ....  1.000000
   Scaling of DF-LDA-C  ScalLDAC        ....  1.000000
   Perturbative correction              ....  0.000000
   Density functional embedding theory  .... OFF
   NL short-range parameter             ....  6.900000
 RI-approximation to the Coulomb term is turned on
   Number of AuxJ basis functions       .... 191
   RIJ-COSX (HFX calculated with COS-X)).... on


General Settings:
 Integral files         IntName         .... ox_gs_A_orca0047
 Hartree-Fock type      HFTyp           .... RHF
 Total Charge           Charge          ....    0
 Multiplicity           Mult            ....    1
 Number of Electrons    NEL             ....   24
 Basis Dimension        Dim             ....  117
 Nuclear Repulsion      ENuc            ....     75.7710681924 Eh

Convergence Acceleration:
 DIIS                   CNVDIIS         .... on
   Start iteration      DIISMaxIt       ....    12
   Startup error        DIISStart       ....  0.200000
   # of expansion vecs  DIISMaxEq       ....     5
   Bias factor          DIISBfac        ....   1.050
   Max. coefficient     DIISMaxC        ....  10.000
 Trust-Rad. Augm. Hess. CNVTRAH         .... auto
   Auto Start mean grad. ratio tolernc. ....  1.125000
   Auto Start start iteration           ....    20
   Auto Start num. interpolation iter.  ....    10
   Max. Number of Micro iterations      ....    16
   Max. Number of Macro iterations      .... Maxiter - #DIIS iter
   Number of Davidson start vectors     ....     2
   Converg. threshold I  (grad. norm)   ....   1.000e-05
   Converg. threshold II (energy diff.) ....   1.000e-08
   Grad. Scal. Fac. for Micro threshold ....   0.100
   Minimum threshold for Micro iter.    ....   0.010
   NR start threshold (gradient norm)   ....   0.001
   Initial trust radius                 ....   0.400
   Minimum AH scaling param. (alpha)    ....   1.000
   Maximum AH scaling param. (alpha)    .... 1000.000
   Orbital update algorithm             .... Taylor
   White noise on init. David. guess    .... on
   Maximum white noise                  ....   0.010
   Quad. conv. algorithm                .... NR
 SOSCF                  CNVSOSCF        .... on
   Start iteration      SOSCFMaxIt      ....   150
   Startup grad/error   SOSCFStart      ....  0.003300
 Level Shifting         CNVShift        .... on
   Level shift para.    LevelShift      ....    0.2500
   Turn off err/grad.   ShiftErr        ....    0.0010
 Zerner damping         CNVZerner       .... off
 Static damping         CNVDamp         .... on
   Fraction old density DampFac         ....    0.7000
   Max. Damping (<1)    DampMax         ....    0.9800
   Min. Damping (>=0)   DampMin         ....    0.0000
   Turn off err/grad.   DampErr         ....    0.1000
 Fernandez-Rico         CNVRico         .... off

SCF Procedure:
 Maximum # iterations   MaxIter         ....   125
 SCF integral mode      SCFMode         .... Direct
   Integral package                     .... SHARK and LIBINT hybrid scheme
 Reset frequency        DirectResetFreq ....    20
 Integral Threshold     Thresh          ....  2.500e-11 Eh
 Primitive CutOff       TCut            ....  2.500e-12 Eh

Convergence Tolerance:
 Convergence Check Mode ConvCheckMode   .... Total+1el-Energy
 Convergence forced     ConvForced      .... 0
 Energy Change          TolE            ....  1.000e-08 Eh
 1-El. energy change                    ....  1.000e-05 Eh
 Orbital Gradient       TolG            ....  1.000e-05
 Orbital Rotation angle TolX            ....  1.000e-05
 DIIS Error             TolErr          ....  5.000e-07


Diagonalization of the overlap matrix:
Smallest eigenvalue                        ... 2.876e-04
Time for diagonalization                   ...    0.001 sec
Threshold for overlap eigenvalues          ... 1.000e-08
Number of eigenvalues below threshold      ... 0
Time for construction of square roots      ...    0.001 sec
Total time needed                          ...    0.003 sec

Time for model grid setup =    0.022 sec

------------------------------
INITIAL GUESS: MODEL POTENTIAL
------------------------------
Loading Hartree-Fock densities                     ... done
Calculating cut-offs                               ... done
Initializing the effective Hamiltonian             ... done
Setting up the integral package (SHARK)            ... done
Starting the Coulomb interaction                   ... done (   0.0 sec)
Reading the grid                                   ... done
Mapping shells                                     ... done
Starting the XC term evaluation                    ... done (   0.0 sec)
  promolecular density results
     # of electrons  =     23.997731945
     EX              =    -19.563750002
     EC              =     -0.784641809
     EX+EC           =    -20.348391812
Transforming the Hamiltonian                       ... done (   0.0 sec)
Diagonalizing the Hamiltonian                      ... done (   0.0 sec)
Back transforming the eigenvectors                 ... done (   0.0 sec)
Now organizing SCF variables                       ... done
                      ------------------
                      INITIAL GUESS DONE (   0.0 sec)
                      ------------------
-------------------
DFT GRID GENERATION
-------------------

General Integration Accuracy     IntAcc      ... 4.388
Radial Grid Type                 RadialGrid  ... OptM3 with GC (2021)
Angular Grid (max. ang.)         AngularGrid ... 4 (Lebedev-302)
Angular grid pruning method      GridPruning ... 4 (adaptive)
Weight generation scheme         WeightScheme... Becke
Basis function cutoff            BFCut       ... 1.0000e-11
Integration weight cutoff        WCut        ... 1.0000e-14
Angular grids for H and He will be reduced by one unit
Partially contracted basis set               ... off
Rotationally invariant grid construction     ... off

Total number of grid points                  ...    31283
Total number of batches                      ...      492
Average number of points per batch           ...       63
Average number of grid points per atom       ...     4469
Time for grid setup =    0.110 sec

--------------------
COSX GRID GENERATION
--------------------

GRIDX 1
-------
General Integration Accuracy     IntAcc      ... 3.816
Radial Grid Type                 RadialGrid  ... OptM3 with GC (2021)
Angular Grid (max. ang.)         AngularGrid ... 1 (Lebedev-50)
Angular grid pruning method      GridPruning ... 4 (adaptive)
Weight generation scheme         WeightScheme... Becke
Basis function cutoff            BFCut       ... 1.0000e-11
Integration weight cutoff        WCut        ... 1.0000e-14
Angular grids for H and He will be reduced by one unit
Partially contracted basis set               ... on
Rotationally invariant grid construction     ... off

Total number of grid points                  ...     4032
Total number of batches                      ...       68
Average number of points per batch           ...       59
Average number of grid points per atom       ...      576
UseSFitting                                  ... on

GRIDX 2
-------
General Integration Accuracy     IntAcc      ... 4.020
Radial Grid Type                 RadialGrid  ... OptM3 with GC (2021)
Angular Grid (max. ang.)         AngularGrid ... 2 (Lebedev-110)
Angular grid pruning method      GridPruning ... 4 (adaptive)
Weight generation scheme         WeightScheme... Becke
Basis function cutoff            BFCut       ... 1.0000e-11
Integration weight cutoff        WCut        ... 1.0000e-14
Angular grids for H and He will be reduced by one unit
Partially contracted basis set               ... on
Rotationally invariant grid construction     ... off

Total number of grid points                  ...     8696
Total number of batches                      ...      140
Average number of points per batch           ...       62
Average number of grid points per atom       ...     1242
UseSFitting                                  ... on

GRIDX 3
-------
General Integration Accuracy     IntAcc      ... 4.338
Radial Grid Type                 RadialGrid  ... OptM3 with GC (2021)
Angular Grid (max. ang.)         AngularGrid ... 3 (Lebedev-194)
Angular grid pruning method      GridPruning ... 4 (adaptive)
Weight generation scheme         WeightScheme... Becke
Basis function cutoff            BFCut       ... 1.0000e-11
Integration weight cutoff        WCut        ... 1.0000e-14
Angular grids for H and He will be reduced by one unit
Partially contracted basis set               ... on
Rotationally invariant grid construction     ... off

Total number of grid points                  ...    19215
Total number of batches                      ...      305
Average number of points per batch           ...       63
Average number of grid points per atom       ...     2745
UseSFitting                                  ... on

Time for X-Grid setup             =    0.072 sec

--------------
SCF ITERATIONS
--------------
ITER       Energy         Delta-E        Max-DP      RMS-DP      [F,P]     Damp
               ***  Starting incremental Fock matrix formation  ***
  0   -153.5872547693   0.000000000000 0.03262545  0.00121340  0.1768976 0.7000
  1   -153.6179176240  -0.030662854649 0.02017335  0.00090475  0.0751807 0.7000
                               ***Turning on DIIS***
  2   -153.6308189700  -0.012901346076 0.02910888  0.00153406  0.0368942 0.0000
  3   -153.6515720565  -0.020753086494 0.01628943  0.00069129  0.0399475 0.0000
  4   -153.6555141963  -0.003942139794 0.00419210  0.00018594  0.0085249 0.0000
  5   -153.6556922919  -0.000178095550 0.00152459  0.00006860  0.0046919 0.0000
                      *** Initiating the SOSCF procedure ***
                           *** Shutting down DIIS ***
                      *** Re-Reading the Fockian *** 
                      *** Removing any level shift *** 
ITER      Energy       Delta-E        Grad      Rot      Max-DP    RMS-DP
  6   -153.65572359  -0.0000312962  0.000114  0.000114  0.000881  0.000031
               *** Restarting incremental Fock matrix formation ***
  7   -153.65570551   0.0000180745  0.000070  0.000150  0.000129  0.000006
  8   -153.65570542   0.0000000921  0.000127  0.000107  0.000097  0.000004
  9   -153.65570558  -0.0000001611  0.000011  0.000015  0.000029  0.000001
 10   -153.65570558   0.0000000011  0.000014  0.000009  0.000018  0.000001
                  ***Gradient check signals convergence***
              ***Rediagonalizing the Fockian in SOSCF/NRSCF***

               *****************************************************
               *                     SUCCESS                       *
               *           SCF CONVERGED AFTER  11 CYCLES          *
               *****************************************************

Old exchange energy                            =     -5.010854618 Eh
New exchange energy                            =     -5.010837161 Eh
Exchange energy change after final integration =      0.000017457 Eh
Total energy after final integration           =   -153.655688129 Eh
Final COS-X integration done in                =     0.259 sec

----------------
TOTAL SCF ENERGY
----------------

Total Energy       :         -153.65568813 Eh           -4181.18384 eV

Components:
Nuclear Repulsion  :           75.77106819 Eh            2061.83559 eV
Electronic Energy  :         -229.42675632 Eh           -6243.01943 eV
One Electron Energy:         -358.21815368 Eh           -9747.61152 eV
Two Electron Energy:          128.79139736 Eh            3504.59209 eV
Max COSX asymmetry :            0.00000294 Eh               0.00008 eV

Virial components:
Potential Energy   :         -306.87806873 Eh           -8350.57679 eV
Kinetic Energy     :          153.22238060 Eh            4169.39294 eV
Virial Ratio       :            2.00282796


DFT components:
N(Alpha)           :       12.000000896590 electrons
N(Beta)            :       12.000000896590 electrons
N(Total)           :       24.000001793181 electrons
E(X)               :      -15.000116057476 Eh       
E(C)               :       -0.791871340172 Eh       
E(XC)              :      -15.791987397648 Eh       
DFET-embed. en.    :        0.000000000000 Eh       

---------------
SCF CONVERGENCE
---------------

  Last Energy change         ...   -4.5495e-09  Tolerance :   1.0000e-08
  Last MAX-Density change    ...    2.3315e-15  Tolerance :   1.0000e-07
  Last RMS-Density change    ...    3.4103e-17  Tolerance :   5.0000e-09
  Last Orbital Gradient      ...    6.9909e-07  Tolerance :   1.0000e-05
  Last Orbital Rotation      ...    9.0930e-07  Tolerance :   1.0000e-05

             **** THE GBW FILE WAS UPDATED (ox_gs_A_orca0047.gbw) ****
             **** DENSITY ox_gs_A_orca0047.scfp WAS UPDATED ****
             **** ENERGY FILE WAS UPDATED (ox_gs_A_orca0047.en.tmp) ****
             **** THE GBW FILE WAS UPDATED (ox_gs_A_orca0047.gbw) ****
             **** DENSITY ox_gs_A_orca0047.scfp WAS UPDATED ****
----------------
ORBITAL ENERGIES
----------------

  NO   OCC          E(Eh)            E(eV) 
   0   2.0000     -19.212185      -522.7901 
   1   2.0000     -10.273426      -279.5541 
   2   2.0000     -10.261308      -279.2244 
   3   2.0000      -1.088670       -29.6242 
   4   2.0000      -0.718052       -19.5392 
   5   2.0000      -0.655996       -17.8506 
   6   2.0000      -0.544390       -14.8136 
   7   2.0000      -0.500163       -13.6101 
   8   2.0000      -0.408354       -11.1119 
   9   2.0000      -0.388134       -10.5616 
  10   2.0000      -0.347920        -9.4674 
  11   2.0000      -0.282303        -7.6818 
  12   0.0000       0.057987         1.5779 
  13   0.0000       0.067855         1.8464 
  14   0.0000       0.088730         2.4145 
  15   0.0000       0.100354         2.7308 
  16   0.0000       0.109629         2.9831 
  17   0.0000       0.155497         4.2313 
  18   0.0000       0.187831         5.1111 
  19   0.0000       0.216784         5.8990 
  20   0.0000       0.268539         7.3073 
  21   0.0000       0.275604         7.4996 
  22   0.0000       0.287690         7.8284 
  23   0.0000       0.319292         8.6884 
  24   0.0000       0.401059        10.9134 
  25   0.0000       0.407130        11.0786 
  26   0.0000       0.440282        11.9807 
  27   0.0000       0.450503        12.2588 
  28   0.0000       0.468732        12.7548 
  29   0.0000       0.481159        13.0930 
  30   0.0000       0.515255        14.0208 
  31   0.0000       0.521899        14.2016 
  32   0.0000       0.571469        15.5505 
  33   0.0000       0.691304        18.8113 
  34   0.0000       0.709842        19.3158 
  35   0.0000       0.737971        20.0812 
  36   0.0000       0.809735        22.0340 
  37   0.0000       0.829486        22.5715 
  38   0.0000       0.866901        23.5896 
  39   0.0000       0.947051        25.7706 
  40   0.0000       1.018692        27.7200 
  41   0.0000       1.047626        28.5074 
  42   0.0000       1.071529        29.1578 
  43   0.0000       1.087448        29.5910 
  44   0.0000       1.200599        32.6700 
  45   0.0000       1.348394        36.6917 
  46   0.0000       1.469695        39.9924 
  47   0.0000       1.488278        40.4981 
  48   0.0000       1.513178        41.1757 
  49   0.0000       1.537641        41.8414 
  50   0.0000       1.601603        43.5818 
  51   0.0000       1.650951        44.9247 
  52   0.0000       1.685932        45.8766 
  53   0.0000       1.696392        46.1612 
  54   0.0000       1.770433        48.1759 
  55   0.0000       1.794061        48.8189 
  56   0.0000       1.847688        50.2781 
  57   0.0000       1.865852        50.7724 
  58   0.0000       1.928274        52.4710 
  59   0.0000       2.031069        55.2682 
  60   0.0000       2.136842        58.1464 
  61   0.0000       2.173791        59.1519 
  62   0.0000       2.246803        61.1386 
  63   0.0000       2.263780        61.6006 
  64   0.0000       2.275613        61.9226 
  65   0.0000       2.423061        65.9349 
  66   0.0000       2.485143        67.6242 
  67   0.0000       2.511180        68.3327 
  68   0.0000       2.574359        70.0519 
  69   0.0000       2.641790        71.8868 
  70   0.0000       2.655849        72.2693 
  71   0.0000       2.681678        72.9722 
  72   0.0000       2.708392        73.6991 
  73   0.0000       2.723216        74.1025 
  74   0.0000       2.746234        74.7288 
  75   0.0000       2.862156        77.8832 
  76   0.0000       2.940389        80.0120 
  77   0.0000       2.948875        80.2430 
  78   0.0000       2.978353        81.0451 
  79   0.0000       3.015071        82.0443 
  80   0.0000       3.024679        82.3057 
  81   0.0000       3.158541        85.9483 
  82   0.0000       3.170469        86.2728 
  83   0.0000       3.281676        89.2989 
  84   0.0000       3.326055        90.5066 
  85   0.0000       3.363738        91.5320 
  86   0.0000       3.378334        91.9291 
  87   0.0000       3.412188        92.8504 
  88   0.0000       3.594234        97.8041 
  89   0.0000       3.616888        98.4205 
  90   0.0000       3.646668        99.2309 
  91   0.0000       3.710376       100.9645 
  92   0.0000       3.987975       108.5183 
  93   0.0000       4.092861       111.3724 
  94   0.0000       4.168507       113.4308 
  95   0.0000       4.184162       113.8568 
  96   0.0000       4.196510       114.1928 
  97   0.0000       4.378686       119.1501 
  98   0.0000       4.514762       122.8529 
  99   0.0000       4.571035       124.3842 
 100   0.0000       4.781452       130.1099 
 101   0.0000       4.931531       134.1938 
 102   0.0000       5.295494       144.0977 
 103   0.0000       5.415462       147.3622 
 104   0.0000       5.627135       153.1221 
 105   0.0000       5.722087       155.7059 
 106   0.0000       5.782280       157.3438 
 107   0.0000       5.842916       158.9938 
 108   0.0000       6.023378       163.9044 
 109   0.0000       6.565651       178.6605 
 110   0.0000       6.634802       180.5421 
 111   0.0000       6.799419       185.0216 
 112   0.0000       6.975955       189.8254 
 113   0.0000       7.178886       195.3474 
 114   0.0000      22.371681       608.7644 
 115   0.0000      22.616643       615.4302 
 116   0.0000      43.842312      1193.0100 

                    ********************************
                    * MULLIKEN POPULATION ANALYSIS *
                    ********************************

-----------------------
MULLIKEN ATOMIC CHARGES
-----------------------
   0 O :   -0.340242
   1 C :   -0.099286
   2 C :   -0.038225
   3 H :    0.129249
   4 H :    0.134096
   5 H :    0.109557
   6 H :    0.104852
Sum of atomic charges:   -0.0000000

--------------------------------
MULLIKEN REDUCED ORBITAL CHARGES
--------------------------------
  0 O s       :     3.869819  s :     3.869819
      pz      :     1.867080  p :     4.429081
      px      :     1.348934
      py      :     1.213067
      dz2     :     0.005526  d :     0.039274
      dxz     :     0.002473
      dyz     :     0.006156
      dx2y2   :     0.011536
      dxy     :     0.013582
      f0      :     0.000229  f :     0.002067
      f+1     :     0.000165
      f-1     :     0.000464
      f+2     :     0.000093
      f-2     :     0.000187
      f+3     :     0.000393
      f-3     :     0.000536
  1 C s       :     3.222580  s :     3.222580
      pz      :     1.069929  p :     2.763909
      px      :     0.915632
      py      :     0.778348
      dz2     :     0.007475  d :     0.102316
      dxz     :     0.024216
      dyz     :     0.024707
      dx2y2   :     0.026851
      dxy     :     0.019066
      f0      :     0.001559  f :     0.010481
      f+1     :     0.001367
      f-1     :     0.000374
      f+2     :     0.001370
      f-2     :     0.001234
      f+3     :     0.001847
      f-3     :     0.002729
  2 C s       :     3.208962  s :     3.208962
      pz      :     1.037302  p :     2.695964
      px      :     0.900712
      py      :     0.757950
      dz2     :     0.004905  d :     0.121068
      dxz     :     0.027682
      dyz     :     0.032838
      dx2y2   :     0.032344
      dxy     :     0.023300
      f0      :     0.001629  f :     0.012231
      f+1     :     0.001377
      f-1     :     0.000622
      f+2     :     0.001962
      f-2     :     0.001500
      f+3     :     0.001767
      f-3     :     0.003374
  3 H s       :     0.847199  s :     0.847199
      pz      :     0.012098  p :     0.023552
      px      :     0.006452
      py      :     0.005002
  4 H s       :     0.842175  s :     0.842175
      pz      :     0.011512  p :     0.023729
      px      :     0.007194
      py      :     0.005022
  5 H s       :     0.868620  s :     0.868620
      pz      :     0.010542  p :     0.021823
      px      :     0.007197
      py      :     0.004085
  6 H s       :     0.875764  s :     0.875764
      pz      :     0.010277  p :     0.019384
      px      :     0.005922
      py      :     0.003186


                     *******************************
                     * LOEWDIN POPULATION ANALYSIS *
                     *******************************

----------------------
LOEWDIN ATOMIC CHARGES
----------------------
   0 O :    0.081850
   1 C :   -0.210836
   2 C :   -0.328334
   3 H :    0.110668
   4 H :    0.106008
   5 H :    0.111038
   6 H :    0.129605

-------------------------------
LOEWDIN REDUCED ORBITAL CHARGES
-------------------------------
  0 O s       :     3.418943  s :     3.418943
      pz      :     1.756845  p :     4.410488
      px      :     1.331124
      py      :     1.322519
      dz2     :     0.011253  d :     0.082840
      dxz     :     0.006757
      dyz     :     0.014046
      dx2y2   :     0.028696
      dxy     :     0.022088
      f0      :     0.000571  f :     0.005880
      f+1     :     0.000199
      f-1     :     0.000897
      f+2     :     0.000211
      f-2     :     0.000806
      f+3     :     0.001053
      f-3     :     0.002142
  1 C s       :     2.807322  s :     2.807322
      pz      :     1.061497  p :     2.905777
      px      :     1.051635
      py      :     0.792645
      dz2     :     0.056211  d :     0.431723
      dxz     :     0.130961
      dyz     :     0.058607
      dx2y2   :     0.096724
      dxy     :     0.089219
      f0      :     0.009401  f :     0.066013
      f+1     :     0.006241
      f-1     :     0.005126
      f+2     :     0.008596
      f-2     :     0.004554
      f+3     :     0.013260
      f-3     :     0.018834
  2 C s       :     2.813028  s :     2.813028
      pz      :     1.039849  p :     2.902859
      px      :     1.040111
      py      :     0.822898
      dz2     :     0.054676  d :     0.530558
      dxz     :     0.147359
      dyz     :     0.091307
      dx2y2   :     0.121927
      dxy     :     0.115289
      f0      :     0.010643  f :     0.081890
      f+1     :     0.006066
      f-1     :     0.006303
      f+2     :     0.012004
      f-2     :     0.006725
      f+3     :     0.015127
      f-3     :     0.025022
  3 H s       :     0.816327  s :     0.816327
      pz      :     0.037879  p :     0.073005
      px      :     0.019421
      py      :     0.015705
  4 H s       :     0.818915  s :     0.818915
      pz      :     0.037225  p :     0.075077
      px      :     0.021720
      py      :     0.016132
  5 H s       :     0.824408  s :     0.824408
      pz      :     0.032697  p :     0.064554
      px      :     0.019448
      py      :     0.012409
  6 H s       :     0.817646  s :     0.817646
      pz      :     0.029129  p :     0.052748
      px      :     0.014733
      py      :     0.008887


                      *****************************
                      * MAYER POPULATION ANALYSIS *
                      *****************************

  NA   - Mulliken gross atomic population
  ZA   - Total nuclear charge
  QA   - Mulliken gross atomic charge
  VA   - Mayer's total valence
  BVA  - Mayer's bonded valence
  FA   - Mayer's free valence

  ATOM       NA         ZA         QA         VA         BVA        FA
  0 O      8.3402     8.0000    -0.3402     1.9534     1.9534     0.0000
  1 C      6.0993     6.0000    -0.0993     3.9872     3.9872    -0.0000
  2 C      6.0382     6.0000    -0.0382     4.0041     4.0041    -0.0000
  3 H      0.8708     1.0000     0.1292     0.9684     0.9684    -0.0000
  4 H      0.8659     1.0000     0.1341     0.9699     0.9699    -0.0000
  5 H      0.8904     1.0000     0.1096     0.9553     0.9553    -0.0000
  6 H      0.8951     1.0000     0.1049     0.9624     0.9624    -0.0000

  Mayer bond orders larger than 0.100000
B(  0-O ,  1-C ) :   0.9397 B(  0-O ,  2-C ) :   1.0100 B(  1-C ,  2-C ) :   1.0897 
B(  1-C ,  3-H ) :   0.9658 B(  1-C ,  4-H ) :   0.9646 B(  2-C ,  5-H ) :   0.9493 
B(  2-C ,  6-H ) :   0.9483 

-------
TIMINGS
-------

Total SCF time: 0 days 0 hours 0 min 2 sec 

Total time                  ....       2.532 sec
Sum of individual times     ....       2.341 sec  ( 92.4%)

Fock matrix formation       ....       2.075 sec  ( 82.0%)
  Split-RI-J                ....       0.231 sec  ( 11.1% of F)
  Chain of spheres X        ....       1.421 sec  ( 68.5% of F)
  XC integration            ....       0.402 sec  ( 19.4% of F)
    Basis function eval.    ....       0.108 sec  ( 27.0% of XC)
    Density eval.           ....       0.083 sec  ( 20.6% of XC)
    XC-Functional eval.     ....       0.023 sec  (  5.7% of XC)
    XC-Potential eval.      ....       0.144 sec  ( 35.8% of XC)
Diagonalization             ....       0.016 sec  (  0.6%)
Density matrix formation    ....       0.001 sec  (  0.1%)
Population analysis         ....       0.004 sec  (  0.2%)
Initial guess               ....       0.017 sec  (  0.7%)
Orbital Transformation      ....       0.000 sec  (  0.0%)
Orbital Orthonormalization  ....       0.000 sec  (  0.0%)
DIIS solution               ....       0.013 sec  (  0.5%)
SOSCF solution              ....       0.011 sec  (  0.4%)
Grid generation             ....       0.204 sec  (  8.0%)

Maximum memory used throughout the entire SCF-calculation: 61.1 MB


-------------------------------------------------------------------------------
                          DFT DISPERSION CORRECTION                            
                                                                               
                              DFTD3 V3.1  Rev 1                                
                          USING Becke-Johnson damping                          
-------------------------------------------------------------------------------
The PBE0 functional is recognized
Active option DFTDOPT                   ...         4   

molecular C6(AA) [au] = 350.816376 


            DFT-D V3
 parameters
 s6 scaling factor         :     1.0000 
 a1 scaling factor         :     0.4145 
 s8 scaling factor         :     1.2177 
 a2 scaling factor         :     4.8593 
 ad hoc parameters k1-k3   :    16.0000     1.3333    -4.0000 

 Edisp/kcal,au: -1.518055356981  -0.002419174941 
 E6   /kcal   :  -0.996143282 
 E8   /kcal   :  -0.521912075 
 % E8         :  34.380305841 

-------------------------   ----------------
Dispersion correction           -0.002419175
-------------------------   ----------------


-------------------------   --------------------
FINAL SINGLE POINT ENERGY      -153.658107304154
-------------------------   --------------------



           ************************************************************
           *        Program running with 8 parallel MPI-processes     *
           *              working on a common directory               *
           ************************************************************
------------------------------------------------------------------------------
                         ORCA SCF GRADIENT CALCULATION
------------------------------------------------------------------------------

 ... reading COSX grid (gridx3)
Gradient of the Kohn-Sham DFT energy:
Kohn-Sham wavefunction type      ... RKS
Hartree-Fock exchange scaling    ...    0.250
Number of operators              ...    1
Number of atoms                  ...    7
Basis set dimensions             ...  117
Integral neglect threshold       ... 2.5e-11
Integral primitive cutoff        ... 2.5e-12
SHARK Integral package           ... ON

Nuc. rep. gradient       (SHARK) ... done (  0.0 sec)
HCore & Overlap gradient (SHARK) ... done (  0.0 sec)
RI-J gradient            (SHARK) ... done (  0.1 sec)
COSX-gradient                    ... done (  0.3 sec)
Exchange-correlation gradient    ... done
Dispersion correction            ... done

------------------
CARTESIAN GRADIENT
------------------

   1   O   :    0.014340194    0.024056377    0.007065590
   2   C   :   -0.043573674   -0.051456224   -0.015959325
   3   C   :   -0.046172745   -0.015516272   -0.040436222
   4   H   :    0.031978070    0.014166552   -0.045189064
   5   H   :    0.035543388    0.013963783    0.054380535
   6   H   :   -0.007992458    0.006028115    0.016546234
   7   H   :    0.015826208    0.008553167    0.023600798

Difference to translation invariance:
           :   -0.0000510181   -0.0002045021    0.0000085451

Difference to rotation invariance:
           :   -0.0000139444   -0.0000372983    0.0002663986

Norm of the cartesian gradient     ...    0.1363035827
RMS gradient                       ...    0.0297438802
MAX gradient                       ...    0.0543805347

-------
TIMINGS
-------

Total SCF gradient time            ...        0.698 sec

One electron gradient       ....       0.010 sec  (  1.4%)
RI-J Coulomb gradient       ....       0.077 sec  ( 11.1%)
COSX gradient               ....       0.309 sec  ( 44.3%)
XC gradient                 ....       0.162 sec  ( 23.3%)

Maximum memory used throughout the entire SCFGRAD-calculation: 35.9 MB

                            ***************************************
                            *     ORCA property calculations      *
                            ***************************************

                                    ---------------------
                                    Active property flags
                                    ---------------------
   (+) Dipole Moment


------------------------------------------------------------------------------
                       ORCA ELECTRIC PROPERTIES CALCULATION
------------------------------------------------------------------------------

Dipole Moment Calculation                       ... on
Quadrupole Moment Calculation                   ... off
Polarizability Calculation                      ... off
GBWName                                         ... ox_gs_A_orca0047.gbw
Electron density                                ... ox_gs_A_orca0047.scfp
The origin for moment calculation is the CENTER OF MASS  = ( 0.024010, -0.130915 -0.009040)

-------------
DIPOLE MOMENT
-------------
                                X             Y             Z
Electronic contribution:     -0.15790       1.33962      -0.11905
Nuclear contribution   :      0.08522      -2.12829       0.09717
                        -----------------------------------------
Total Dipole Moment    :     -0.07268      -0.78867      -0.02188
                        -----------------------------------------
Magnitude (a.u.)       :      0.79232
Magnitude (Debye)      :      2.01391



--------------------
Rotational spectrum 
--------------------
 
Rotational constants in cm-1:     0.847805     0.763889     0.476147 
Rotational constants in MHz : 25416.541041 22900.814809 14274.518174 

 Dipole components along the rotational axes: 
x,y,z [a.u.] :    -0.464304     0.641882    -0.013270 
x,y,z [Debye]:    -1.180166     1.631536    -0.033729 

 

Timings for individual modules:

Sum of individual times         ...        3.977 sec (=   0.066 min)
GTO integral calculation        ...        0.312 sec (=   0.005 min)   7.8 %
SCF iterations                  ...        2.734 sec (=   0.046 min)  68.7 %
SCF Gradient evaluation         ...        0.931 sec (=   0.016 min)  23.4 %
                             ****ORCA TERMINATED NORMALLY****
TOTAL RUN TIME: 0 days 0 hours 0 minutes 4 seconds 250 msec
