
                                 *****************
                                 * O   R   C   A *
                                 *****************

                                            #,                                       
                                            ###                                      
                                            ####                                     
                                            #####                                    
                                            ######                                   
                                           ########,                                 
                                     ,,################,,,,,                         
                               ,,#################################,,                 
                          ,,##########################################,,             
                       ,#########################################, ''#####,          
                    ,#############################################,,   '####,        
                  ,##################################################,,,,####,       
                ,###########''''           ''''###############################       
              ,#####''   ,,,,##########,,,,          '''####'''          '####       
            ,##' ,,,,###########################,,,                        '##       
           ' ,,###''''                  '''############,,,                           
         ,,##''                                '''############,,,,        ,,,,,,###''
      ,#''                                            '''#######################'''  
     '                                                          ''''####''''         
             ,#######,   #######,   ,#######,      ##                                
            ,#'     '#,  ##    ##  ,#'     '#,    #''#        ######   ,####,        
            ##       ##  ##   ,#'  ##            #'  '#       #        #'  '#        
            ##       ##  #######   ##           ,######,      #####,   #    #        
            '#,     ,#'  ##    ##  '#,     ,#' ,#      #,         ##   #,  ,#        
             '#######'   ##     ##  '#######'  #'      '#     #####' # '####'        



                  #######################################################
                  #                        -***-                        #
                  #          Department of theory and spectroscopy      #
                  #    Directorship and core code : Frank Neese         #
                  #        Max Planck Institute fuer Kohlenforschung    #
                  #                Kaiser Wilhelm Platz 1               #
                  #                 D-45470 Muelheim/Ruhr               #
                  #                      Germany                        #
                  #                                                     #
                  #                  All rights reserved                #
                  #                        -***-                        #
                  #######################################################


                         Program Version 5.0.2 -  RELEASE  -


 With contributions from (in alphabetic order):
   Daniel Aravena         : Magnetic Suceptibility
   Michael Atanasov       : Ab Initio Ligand Field Theory (pilot matlab implementation)
   Alexander A. Auer      : GIAO ZORA, VPT2 properties, NMR spectrum
   Ute Becker             : Parallelization
   Giovanni Bistoni       : ED, misc. LED, open-shell LED, HFLD
   Martin Brehm           : Molecular dynamics
   Dmytro Bykov           : SCF Hessian
   Vijay G. Chilkuri      : MRCI spin determinant printing, contributions to CSF-ICE
   Dipayan Datta          : RHF DLPNO-CCSD density
   Achintya Kumar Dutta   : EOM-CC, STEOM-CC
   Dmitry Ganyushin       : Spin-Orbit,Spin-Spin,Magnetic field MRCI
   Miquel Garcia          : C-PCM and meta-GGA Hessian, CC/C-PCM, Gaussian charge scheme
   Yang Guo               : DLPNO-NEVPT2, F12-NEVPT2, CIM, IAO-localization
   Andreas Hansen         : Spin unrestricted coupled pair/coupled cluster methods
   Benjamin Helmich-Paris : MC-RPA, TRAH-SCF, COSX integrals
   Lee Huntington         : MR-EOM, pCC
   Robert Izsak           : Overlap fitted RIJCOSX, COSX-SCS-MP3, EOM
   Marcus Kettner         : VPT2
   Christian Kollmar      : KDIIS, OOCD, Brueckner-CCSD(T), CCSD density, CASPT2, CASPT2-K
   Simone Kossmann        : Meta GGA functionals, TD-DFT gradient, OOMP2, MP2 Hessian
   Martin Krupicka        : Initial AUTO-CI
   Lucas Lang             : DCDCAS
   Marvin Lechner         : AUTO-CI (C++ implementation), FIC-MRCC
   Dagmar Lenk            : GEPOL surface, SMD
   Dimitrios Liakos       : Extrapolation schemes; Compound Job, initial MDCI parallelization
   Dimitrios Manganas     : Further ROCIS development; embedding schemes
   Dimitrios Pantazis     : SARC Basis sets
   Anastasios Papadopoulos: AUTO-CI, single reference methods and gradients
   Taras Petrenko         : DFT Hessian,TD-DFT gradient, ASA, ECA, R-Raman, ABS, FL, XAS/XES, NRVS
   Peter Pinski           : DLPNO-MP2, DLPNO-MP2 Gradient
   Christoph Reimann      : Effective Core Potentials
   Marius Retegan         : Local ZFS, SOC
   Christoph Riplinger    : Optimizer, TS searches, QM/MM, DLPNO-CCSD(T), (RO)-DLPNO pert. Triples
   Tobias Risthaus        : Range-separated hybrids, TD-DFT gradient, RPA, STAB
   Michael Roemelt        : Original ROCIS implementation
   Masaaki Saitow         : Open-shell DLPNO-CCSD energy and density
   Barbara Sandhoefer     : DKH picture change effects
   Avijit Sen             : IP-ROCIS
   Kantharuban Sivalingam : CASSCF convergence, NEVPT2, FIC-MRCI
   Bernardo de Souza      : ESD, SOC TD-DFT
   Georgi Stoychev        : AutoAux, RI-MP2 NMR, DLPNO-MP2 response
   Willem Van den Heuvel  : Paramagnetic NMR
   Boris Wezisla          : Elementary symmetry handling
   Frank Wennmohs         : Technical directorship


 We gratefully acknowledge several colleagues who have allowed us to
 interface, adapt or use parts of their codes:
   Stefan Grimme, W. Hujo, H. Kruse, P. Pracht,  : VdW corrections, initial TS optimization,
                  C. Bannwarth, S. Ehlert          DFT functionals, gCP, sTDA/sTD-DF
   Ed Valeev, F. Pavosevic, A. Kumar             : LibInt (2-el integral package), F12 methods
   Garnet Chan, S. Sharma, J. Yang, R. Olivares  : DMRG
   Ulf Ekstrom                                   : XCFun DFT Library
   Mihaly Kallay                                 : mrcc  (arbitrary order and MRCC methods)
   Jiri Pittner, Ondrej Demel                    : Mk-CCSD
   Frank Weinhold                                : gennbo (NPA and NBO analysis)
   Christopher J. Cramer and Donald G. Truhlar   : smd solvation model
   Lars Goerigk                                  : TD-DFT with DH, B97 family of functionals
   V. Asgeirsson, H. Jonsson                     : NEB implementation
   FAccTs GmbH                                   : IRC, NEB, NEB-TS, DLPNO-Multilevel, CI-OPT
                                                   MM, QMMM, 2- and 3-layer-ONIOM, Crystal-QMMM,
                                                   LR-CPCM, SF, NACMEs, symmetry and pop. for TD-DFT,
                                                   nearIR, NL-DFT gradient (VV10), updates on ESD,
                                                   ML-optimized integration grids
   S Lehtola, MJT Oliveira, MAL Marques          : LibXC Library
   Liviu Ungur et al                             : ANISO software


 Your calculation uses the libint2 library for the computation of 2-el integrals
 For citations please refer to: http://libint.valeyev.net

 Your ORCA version has been built with support for libXC version: 5.1.0
 For citations please refer to: https://tddft.org/programs/libxc/

 This ORCA versions uses:
   CBLAS   interface :  Fast vector & matrix operations
   LAPACKE interface :  Fast linear algebra routines
   SCALAPACK package :  Parallel linear algebra routines
   Shared memory     :  Shared parallel matrices
   BLAS/LAPACK       :  OpenBLAS 0.3.15  USE64BITINT DYNAMIC_ARCH NO_AFFINITY SkylakeX SINGLE_THREADED
        Core in use  :  SkylakeX
   Copyright (c) 2011-2014, The OpenBLAS Project


Your calculation utilizes the atom-pairwise dispersion correction
with the Becke-Johnson damping scheme (D3BJ)
Cite in your paper:
S.Grimme, S.Ehrlich, L.Goerigk, J Comput Chem, (2011), 32, 1456–1465 
S.Grimme, J.Antony, S.Ehrlich and H.Krieg, J.Chem.Phys., 132, (2010), 154104 
   

================================================================================

----- Orbital basis set information -----
Your calculation utilizes the basis: def2-TZVP
   F. Weigend and R. Ahlrichs, Phys. Chem. Chem. Phys. 7, 3297 (2005).

----- AuxJ basis set information -----
Your calculation utilizes the auxiliary basis: def2/J
   F. Weigend, Phys. Chem. Chem. Phys. 8, 1057 (2006).

================================================================================
                                        WARNINGS
                       Please study these warnings very carefully!
================================================================================


INFO   : the flag for use of the SHARK integral package has been found!

================================================================================
                                       INPUT FILE
================================================================================
NAME = ox_gs_F_orca0004.inp
|  1> ! engrad PBE0 D3BJ def2-TZVP  
|  2> %pal nprocs 8 end
|  3> %maxcore 3000
|  4>  
|  5> *xyz 0 1 
|  6> O   -1.1611686115647921 0.9361155672074594 0.048578628546713125
|  7> C   -0.8082091470365489 -0.47254958245719864 -0.04394864687025795
|  8> C   0.6721135361934458 -0.4221701511340821 0.07551129326535855
|  9> H   -1.2177862481124089 -0.6363002093538856 0.9808282392525411
| 10> H   -1.256060152075236 -0.6678094468200737 -0.9287103074222239
| 11> H   1.2825146353557513 -0.6021635221323692 -0.8645622830249977
| 12> H   1.2491887581831944 -0.6200831526048579 0.9681519923573036
| 13> *
| 14> 
| 15>                          ****END OF INPUT****
================================================================================

                     *******************************
                     * Energy+Gradient Calculation *
                     *******************************

---------------------------------
CARTESIAN COORDINATES (ANGSTROEM)
---------------------------------
  O     -1.161169    0.936116    0.048579
  C     -0.808209   -0.472550   -0.043949
  C      0.672114   -0.422170    0.075511
  H     -1.217786   -0.636300    0.980828
  H     -1.256060   -0.667809   -0.928710
  H      1.282515   -0.602164   -0.864562
  H      1.249189   -0.620083    0.968152

----------------------------
CARTESIAN COORDINATES (A.U.)
----------------------------
  NO LB      ZA    FRAG     MASS         X           Y           Z
   0 O     8.0000    0    15.999   -2.194291    1.769002    0.091800
   1 C     6.0000    0    12.011   -1.527294   -0.892989   -0.083051
   2 C     6.0000    0    12.011    1.270111   -0.797786    0.142696
   3 H     1.0000    0     1.008   -2.301282   -1.202433    1.853497
   4 H     1.0000    0     1.008   -2.373610   -1.261977   -1.755008
   5 H     1.0000    0     1.008    2.423601   -1.137924   -1.633786
   6 H     1.0000    0     1.008    2.360625   -1.171787    1.829542

--------------------------------
INTERNAL COORDINATES (ANGSTROEM)
--------------------------------
 O      0   0   0     0.000000000000     0.00000000     0.00000000
 C      1   0   0     1.455156068666     0.00000000     0.00000000
 C      2   1   0     1.485989236463   101.75348782     0.00000000
 H      2   1   3     1.115677075083    89.69246080   107.58322032
 H      2   1   3     1.010692897634    97.77043321   235.75404958
 H      3   2   1     1.135220438638   117.62589872   253.79258728
 H      3   2   1     1.081199697401   126.28951227    99.74725448

---------------------------
INTERNAL COORDINATES (A.U.)
---------------------------
 O      0   0   0     0.000000000000     0.00000000     0.00000000
 C      1   0   0     2.749846451893     0.00000000     0.00000000
 C      2   1   0     2.808112694869   101.75348782     0.00000000
 H      2   1   3     2.108324125802    89.69246080   107.58322032
 H      2   1   3     1.909932782028    97.77043321   235.75404958
 H      3   2   1     2.145255730656   117.62589872   253.79258728
 H      3   2   1     2.043171324167   126.28951227    99.74725448

---------------------
BASIS SET INFORMATION
---------------------
There are 3 groups of distinct atoms

 Group   1 Type O   : 11s6p2d1f contracted to 5s3p2d1f pattern {62111/411/11/1}
 Group   2 Type C   : 11s6p2d1f contracted to 5s3p2d1f pattern {62111/411/11/1}
 Group   3 Type H   : 5s1p contracted to 3s1p pattern {311/1}

Atom   0O    basis set group =>   1
Atom   1C    basis set group =>   2
Atom   2C    basis set group =>   2
Atom   3H    basis set group =>   3
Atom   4H    basis set group =>   3
Atom   5H    basis set group =>   3
Atom   6H    basis set group =>   3
---------------------------------
AUXILIARY/J BASIS SET INFORMATION
---------------------------------
There are 3 groups of distinct atoms

 Group   1 Type O   : 12s5p4d2f1g contracted to 6s4p3d1f1g pattern {711111/2111/211/2/1}
 Group   2 Type C   : 12s5p4d2f1g contracted to 6s4p3d1f1g pattern {711111/2111/211/2/1}
 Group   3 Type H   : 5s2p1d contracted to 3s1p1d pattern {311/2/1}

Atom   0O    basis set group =>   1
Atom   1C    basis set group =>   2
Atom   2C    basis set group =>   2
Atom   3H    basis set group =>   3
Atom   4H    basis set group =>   3
Atom   5H    basis set group =>   3
Atom   6H    basis set group =>   3


           ************************************************************
           *        Program running with 8 parallel MPI-processes     *
           *              working on a common directory               *
           ************************************************************
------------------------------------------------------------------------------
                           ORCA GTO INTEGRAL CALCULATION
                           -- RI-GTO INTEGRALS CHOSEN --
------------------------------------------------------------------------------
------------------------------------------------------------------------------
                   ___                                                        
                  /   \      - P O W E R E D   B Y -                         
                 /     \                                                     
                 |  |  |   _    _      __       _____    __    __             
                 |  |  |  | |  | |    /  \     |  _  \  |  |  /  |          
                  \  \/   | |  | |   /    \    | | | |  |  | /  /          
                 / \  \   | |__| |  /  /\  \   | |_| |  |  |/  /          
                |  |  |   |  __  | /  /__\  \  |    /   |      \           
                |  |  |   | |  | | |   __   |  |    \   |  |\   \          
                \     /   | |  | | |  |  |  |  | |\  \  |  | \   \       
                 \___/    |_|  |_| |__|  |__|  |_| \__\ |__|  \__/        
                                                                              
                      - O R C A' S   B I G   F R I E N D -                    
                                      &                                       
                       - I N T E G R A L  F E E D E R -                       
                                                                              
 v1 FN, 2020, v2 2021                                                         
------------------------------------------------------------------------------


Reading SHARK input file ox_gs_F_orca0004.SHARKINP.tmp ... ok
----------------------
SHARK INTEGRAL PACKAGE
----------------------

Number of atoms                             ...      7
Number of basis functions                   ...    117
Number of shells                            ...     49
Maximum angular momentum                    ...      3
Integral batch strategy                     ... SHARK/LIBINT Hybrid
RI-J (if used) integral strategy            ... SPLIT-RIJ (Revised 2003 algorithm where possible)
Printlevel                                  ...      1
Contraction scheme used                     ... SEGMENTED contraction
Coulomb Range Separation                    ... NOT USED
Exchange Range Separation                   ... NOT USED
Finite Nucleus Model                        ... NOT USED
Auxiliary Coulomb fitting basis             ... AVAILABLE
   # of basis functions in Aux-J            ...    191
   # of shells in Aux-J                     ...     65
   Maximum angular momentum in Aux-J        ...      4
Auxiliary J/K fitting basis                 ... NOT available
Auxiliary Correlation fitting basis         ... NOT available
Auxiliary 'external' fitting basis          ... NOT available
Integral threshold                          ...     2.500000e-11
Primitive cut-off                           ...     2.500000e-12
Primitive pair pre-selection threshold      ...     2.500000e-12

Calculating pre-screening integrals         ... done (  0.0 sec) Dimension = 49
Organizing shell pair data                  ... done (  0.0 sec)
Shell pair information
Total number of shell pairs                 ...      1225
Shell pairs after pre-screening             ...      1213
Total number of primitive shell pairs       ...      3648
Primitive shell pairs kept                  ...      3078
          la=0 lb=0:    367 shell pairs
          la=1 lb=0:    351 shell pairs
          la=1 lb=1:     91 shell pairs
          la=2 lb=0:    161 shell pairs
          la=2 lb=1:     78 shell pairs
          la=2 lb=2:     21 shell pairs
          la=3 lb=0:     81 shell pairs
          la=3 lb=1:     39 shell pairs
          la=3 lb=2:     18 shell pairs
          la=3 lb=3:      6 shell pairs

Calculating one electron integrals          ... done (  0.0 sec)
Calculating RI/J V-Matrix + Cholesky decomp.... done (  0.0 sec)
Calculating Nuclear repulsion               ... done (  0.0 sec) ENN=     67.575906461337 Eh

SHARK setup successfully completed in   0.1 seconds

Maximum memory used throughout the entire GTOINT-calculation: 14.9 MB


           ************************************************************
           *        Program running with 8 parallel MPI-processes     *
           *              working on a common directory               *
           ************************************************************
-------------------------------------------------------------------------------
                                 ORCA SCF
-------------------------------------------------------------------------------

------------
SCF SETTINGS
------------
Hamiltonian:
 Density Functional     Method          .... DFT(GTOs)
 Exchange Functional    Exchange        .... PBE
   PBE kappa parameter   XKappa         ....  0.804000
   PBE mue parameter    XMuePBE         ....  0.219520
 Correlation Functional Correlation     .... PBE
   PBE beta parameter  CBetaPBE         ....  0.066725
 LDA part of GGA corr.  LDAOpt          .... PW91-LDA
 Gradients option       PostSCFGGA      .... off
 Hybrid DFT is turned on
   Fraction HF Exchange ScalHFX         ....  0.250000
   Scaling of DF-GGA-X  ScalDFX         ....  0.750000
   Scaling of DF-GGA-C  ScalDFC         ....  1.000000
   Scaling of DF-LDA-C  ScalLDAC        ....  1.000000
   Perturbative correction              ....  0.000000
   Density functional embedding theory  .... OFF
   NL short-range parameter             ....  6.900000
 RI-approximation to the Coulomb term is turned on
   Number of AuxJ basis functions       .... 191
   RIJ-COSX (HFX calculated with COS-X)).... on


General Settings:
 Integral files         IntName         .... ox_gs_F_orca0004
 Hartree-Fock type      HFTyp           .... RHF
 Total Charge           Charge          ....    0
 Multiplicity           Mult            ....    1
 Number of Electrons    NEL             ....   24
 Basis Dimension        Dim             ....  117
 Nuclear Repulsion      ENuc            ....     67.5759064613 Eh

Convergence Acceleration:
 DIIS                   CNVDIIS         .... on
   Start iteration      DIISMaxIt       ....    12
   Startup error        DIISStart       ....  0.200000
   # of expansion vecs  DIISMaxEq       ....     5
   Bias factor          DIISBfac        ....   1.050
   Max. coefficient     DIISMaxC        ....  10.000
 Trust-Rad. Augm. Hess. CNVTRAH         .... auto
   Auto Start mean grad. ratio tolernc. ....  1.125000
   Auto Start start iteration           ....    20
   Auto Start num. interpolation iter.  ....    10
   Max. Number of Micro iterations      ....    16
   Max. Number of Macro iterations      .... Maxiter - #DIIS iter
   Number of Davidson start vectors     ....     2
   Converg. threshold I  (grad. norm)   ....   1.000e-05
   Converg. threshold II (energy diff.) ....   1.000e-08
   Grad. Scal. Fac. for Micro threshold ....   0.100
   Minimum threshold for Micro iter.    ....   0.010
   NR start threshold (gradient norm)   ....   0.001
   Initial trust radius                 ....   0.400
   Minimum AH scaling param. (alpha)    ....   1.000
   Maximum AH scaling param. (alpha)    .... 1000.000
   Orbital update algorithm             .... Taylor
   White noise on init. David. guess    .... on
   Maximum white noise                  ....   0.010
   Quad. conv. algorithm                .... NR
 SOSCF                  CNVSOSCF        .... on
   Start iteration      SOSCFMaxIt      ....   150
   Startup grad/error   SOSCFStart      ....  0.003300
 Level Shifting         CNVShift        .... on
   Level shift para.    LevelShift      ....    0.2500
   Turn off err/grad.   ShiftErr        ....    0.0010
 Zerner damping         CNVZerner       .... off
 Static damping         CNVDamp         .... on
   Fraction old density DampFac         ....    0.7000
   Max. Damping (<1)    DampMax         ....    0.9800
   Min. Damping (>=0)   DampMin         ....    0.0000
   Turn off err/grad.   DampErr         ....    0.1000
 Fernandez-Rico         CNVRico         .... off

SCF Procedure:
 Maximum # iterations   MaxIter         ....   125
 SCF integral mode      SCFMode         .... Direct
   Integral package                     .... SHARK and LIBINT hybrid scheme
 Reset frequency        DirectResetFreq ....    20
 Integral Threshold     Thresh          ....  2.500e-11 Eh
 Primitive CutOff       TCut            ....  2.500e-12 Eh

Convergence Tolerance:
 Convergence Check Mode ConvCheckMode   .... Total+1el-Energy
 Convergence forced     ConvForced      .... 0
 Energy Change          TolE            ....  1.000e-08 Eh
 1-El. energy change                    ....  1.000e-05 Eh
 Orbital Gradient       TolG            ....  1.000e-05
 Orbital Rotation angle TolX            ....  1.000e-05
 DIIS Error             TolErr          ....  5.000e-07


Diagonalization of the overlap matrix:
Smallest eigenvalue                        ... 5.525e-04
Time for diagonalization                   ...    0.001 sec
Threshold for overlap eigenvalues          ... 1.000e-08
Number of eigenvalues below threshold      ... 0
Time for construction of square roots      ...    0.001 sec
Total time needed                          ...    0.003 sec

Time for model grid setup =    0.022 sec

------------------------------
INITIAL GUESS: MODEL POTENTIAL
------------------------------
Loading Hartree-Fock densities                     ... done
Calculating cut-offs                               ... done
Initializing the effective Hamiltonian             ... done
Setting up the integral package (SHARK)            ... done
Starting the Coulomb interaction                   ... done (   0.0 sec)
Reading the grid                                   ... done
Mapping shells                                     ... done
Starting the XC term evaluation                    ... done (   0.0 sec)
  promolecular density results
     # of electrons  =     23.997719362
     EX              =    -19.445574172
     EC              =     -0.763849819
     EX+EC           =    -20.209423991
Transforming the Hamiltonian                       ... done (   0.0 sec)
Diagonalizing the Hamiltonian                      ... done (   0.0 sec)
Back transforming the eigenvectors                 ... done (   0.0 sec)
Now organizing SCF variables                       ... done
                      ------------------
                      INITIAL GUESS DONE (   0.0 sec)
                      ------------------
-------------------
DFT GRID GENERATION
-------------------

General Integration Accuracy     IntAcc      ... 4.388
Radial Grid Type                 RadialGrid  ... OptM3 with GC (2021)
Angular Grid (max. ang.)         AngularGrid ... 4 (Lebedev-302)
Angular grid pruning method      GridPruning ... 4 (adaptive)
Weight generation scheme         WeightScheme... Becke
Basis function cutoff            BFCut       ... 1.0000e-11
Integration weight cutoff        WCut        ... 1.0000e-14
Angular grids for H and He will be reduced by one unit
Partially contracted basis set               ... off
Rotationally invariant grid construction     ... off

Total number of grid points                  ...    31341
Total number of batches                      ...      493
Average number of points per batch           ...       63
Average number of grid points per atom       ...     4477
Time for grid setup =    0.112 sec

--------------------
COSX GRID GENERATION
--------------------

GRIDX 1
-------
General Integration Accuracy     IntAcc      ... 3.816
Radial Grid Type                 RadialGrid  ... OptM3 with GC (2021)
Angular Grid (max. ang.)         AngularGrid ... 1 (Lebedev-50)
Angular grid pruning method      GridPruning ... 4 (adaptive)
Weight generation scheme         WeightScheme... Becke
Basis function cutoff            BFCut       ... 1.0000e-11
Integration weight cutoff        WCut        ... 1.0000e-14
Angular grids for H and He will be reduced by one unit
Partially contracted basis set               ... on
Rotationally invariant grid construction     ... off

Total number of grid points                  ...     4042
Total number of batches                      ...       67
Average number of points per batch           ...       60
Average number of grid points per atom       ...      577
UseSFitting                                  ... on

GRIDX 2
-------
General Integration Accuracy     IntAcc      ... 4.020
Radial Grid Type                 RadialGrid  ... OptM3 with GC (2021)
Angular Grid (max. ang.)         AngularGrid ... 2 (Lebedev-110)
Angular grid pruning method      GridPruning ... 4 (adaptive)
Weight generation scheme         WeightScheme... Becke
Basis function cutoff            BFCut       ... 1.0000e-11
Integration weight cutoff        WCut        ... 1.0000e-14
Angular grids for H and He will be reduced by one unit
Partially contracted basis set               ... on
Rotationally invariant grid construction     ... off

Total number of grid points                  ...     8740
Total number of batches                      ...      140
Average number of points per batch           ...       62
Average number of grid points per atom       ...     1249
UseSFitting                                  ... on

GRIDX 3
-------
General Integration Accuracy     IntAcc      ... 4.338
Radial Grid Type                 RadialGrid  ... OptM3 with GC (2021)
Angular Grid (max. ang.)         AngularGrid ... 3 (Lebedev-194)
Angular grid pruning method      GridPruning ... 4 (adaptive)
Weight generation scheme         WeightScheme... Becke
Basis function cutoff            BFCut       ... 1.0000e-11
Integration weight cutoff        WCut        ... 1.0000e-14
Angular grids for H and He will be reduced by one unit
Partially contracted basis set               ... on
Rotationally invariant grid construction     ... off

Total number of grid points                  ...    19274
Total number of batches                      ...      305
Average number of points per batch           ...       63
Average number of grid points per atom       ...     2753
UseSFitting                                  ... on

Time for X-Grid setup             =    0.072 sec

--------------
SCF ITERATIONS
--------------
ITER       Energy         Delta-E        Max-DP      RMS-DP      [F,P]     Damp
               ***  Starting incremental Fock matrix formation  ***
  0   -153.3037685266   0.000000000000 0.10790279  0.00299769  0.3651074 0.7000
  1   -153.4247859094  -0.121017382837 0.06285753  0.00154520  0.0830598 0.7000
                               ***Turning on DIIS***
  2   -153.4342338763  -0.009447966863 0.06330742  0.00220333  0.0844285 0.0000
  3   -153.5118538704  -0.077619994137 0.02561745  0.00104348  0.0424357 0.0000
  4   -153.5164324759  -0.004578605462 0.00947593  0.00033176  0.0421559 0.0000
  5   -153.5184787557  -0.002046279860 0.00432611  0.00014126  0.0144688 0.0000
  6   -153.5187693692  -0.000290613502 0.00114818  0.00004689  0.0039632 0.0000
                      *** Initiating the SOSCF procedure ***
                           *** Shutting down DIIS ***
                      *** Re-Reading the Fockian *** 
                      *** Removing any level shift *** 
ITER      Energy       Delta-E        Grad      Rot      Max-DP    RMS-DP
  7   -153.51879330  -0.0000239276  0.000548  0.000548  0.001773  0.000066
               *** Restarting incremental Fock matrix formation ***
  8   -153.51880518  -0.0000118819  0.000399  0.004080  0.001220  0.000045
  9   -153.51880696  -0.0000017821  0.000873  0.007210  0.002538  0.000085
 10   -153.51881351  -0.0000065474  0.000387  0.002381  0.000642  0.000034
 11   -153.51881555  -0.0000020443  0.000339  0.000722  0.000270  0.000014
 12   -153.51881698  -0.0000014299  0.000045  0.000328  0.000081  0.000004
 13   -153.51881702  -0.0000000415  0.000018  0.000228  0.000057  0.000003
 14   -153.51881704  -0.0000000138  0.000004  0.000013  0.000008  0.000000
                 **** Energy Check signals convergence ****
              ***Rediagonalizing the Fockian in SOSCF/NRSCF***

               *****************************************************
               *                     SUCCESS                       *
               *           SCF CONVERGED AFTER  15 CYCLES          *
               *****************************************************

Old exchange energy                            =     -4.951130458 Eh
New exchange energy                            =     -4.951139521 Eh
Exchange energy change after final integration =     -0.000009063 Eh
Total energy after final integration           =   -153.518826101 Eh
Final COS-X integration done in                =     0.244 sec

----------------
TOTAL SCF ENERGY
----------------

Total Energy       :         -153.51882610 Eh           -4177.45964 eV

Components:
Nuclear Repulsion  :           67.57590646 Eh            1838.83390 eV
Electronic Energy  :         -221.09473256 Eh           -6016.29354 eV
One Electron Energy:         -342.00741975 Eh           -9306.49502 eV
Two Electron Energy:          120.91268718 Eh            3290.20149 eV
Max COSX asymmetry :            0.00000319 Eh               0.00009 eV

Virial components:
Potential Energy   :         -306.27766300 Eh           -8334.23891 eV
Kinetic Energy     :          152.75883690 Eh            4156.77928 eV
Virial Ratio       :            2.00497509


DFT components:
N(Alpha)           :       12.000001252285 electrons
N(Beta)            :       12.000001252285 electrons
N(Total)           :       24.000002504570 electrons
E(X)               :      -14.872071800461 Eh       
E(C)               :       -0.769591254653 Eh       
E(XC)              :      -15.641663055114 Eh       
DFET-embed. en.    :        0.000000000000 Eh       

---------------
SCF CONVERGENCE
---------------

  Last Energy change         ...   -6.3733e-10  Tolerance :   1.0000e-08
  Last MAX-Density change    ...    1.3323e-15  Tolerance :   1.0000e-07
  Last RMS-Density change    ...    2.2522e-17  Tolerance :   5.0000e-09
  Last Orbital Gradient      ...    1.4905e-06  Tolerance :   1.0000e-05
  Last Orbital Rotation      ...    3.8315e-06  Tolerance :   1.0000e-05

             **** THE GBW FILE WAS UPDATED (ox_gs_F_orca0004.gbw) ****
             **** DENSITY ox_gs_F_orca0004.scfp WAS UPDATED ****
             **** ENERGY FILE WAS UPDATED (ox_gs_F_orca0004.en.tmp) ****
             **** THE GBW FILE WAS UPDATED (ox_gs_F_orca0004.gbw) ****
             **** DENSITY ox_gs_F_orca0004.scfp WAS UPDATED ****
----------------
ORBITAL ENERGIES
----------------

  NO   OCC          E(Eh)            E(eV) 
   0   2.0000     -19.190575      -522.2021 
   1   2.0000     -10.329110      -281.0694 
   2   2.0000     -10.268843      -279.4294 
   3   2.0000      -0.979926       -26.6652 
   4   2.0000      -0.771733       -20.9999 
   5   2.0000      -0.630906       -17.1678 
   6   2.0000      -0.525632       -14.3032 
   7   2.0000      -0.480162       -13.0659 
   8   2.0000      -0.426167       -11.5966 
   9   2.0000      -0.387869       -10.5544 
  10   2.0000      -0.266075        -7.2403 
  11   2.0000      -0.247872        -6.7449 
  12   0.0000      -0.150269        -4.0890 
  13   0.0000       0.046753         1.2722 
  14   0.0000       0.079205         2.1553 
  15   0.0000       0.084548         2.3007 
  16   0.0000       0.122832         3.3424 
  17   0.0000       0.143712         3.9106 
  18   0.0000       0.189951         5.1688 
  19   0.0000       0.193956         5.2778 
  20   0.0000       0.227268         6.1843 
  21   0.0000       0.246459         6.7065 
  22   0.0000       0.253219         6.8904 
  23   0.0000       0.330598         8.9960 
  24   0.0000       0.353463         9.6182 
  25   0.0000       0.393030        10.6949 
  26   0.0000       0.407628        11.0921 
  27   0.0000       0.430725        11.7206 
  28   0.0000       0.439909        11.9705 
  29   0.0000       0.471542        12.8313 
  30   0.0000       0.499584        13.5944 
  31   0.0000       0.567331        15.4379 
  32   0.0000       0.570667        15.5286 
  33   0.0000       0.586315        15.9545 
  34   0.0000       0.674493        18.3539 
  35   0.0000       0.725591        19.7443 
  36   0.0000       0.782016        21.2797 
  37   0.0000       0.831690        22.6314 
  38   0.0000       0.890153        24.2223 
  39   0.0000       0.913206        24.8496 
  40   0.0000       0.927348        25.2344 
  41   0.0000       1.031384        28.0654 
  42   0.0000       1.051929        28.6244 
  43   0.0000       1.084433        29.5089 
  44   0.0000       1.186116        32.2759 
  45   0.0000       1.329709        36.1832 
  46   0.0000       1.400616        38.1127 
  47   0.0000       1.444295        39.3013 
  48   0.0000       1.510424        41.1007 
  49   0.0000       1.524724        41.4899 
  50   0.0000       1.567883        42.6643 
  51   0.0000       1.581432        43.0330 
  52   0.0000       1.630720        44.3741 
  53   0.0000       1.687147        45.9096 
  54   0.0000       1.739479        47.3336 
  55   0.0000       1.778317        48.3905 
  56   0.0000       1.809822        49.2478 
  57   0.0000       1.830131        49.8004 
  58   0.0000       1.854971        50.4763 
  59   0.0000       1.877187        51.0809 
  60   0.0000       1.995849        54.3098 
  61   0.0000       2.089246        56.8513 
  62   0.0000       2.157098        58.6976 
  63   0.0000       2.171076        59.0780 
  64   0.0000       2.308293        62.8118 
  65   0.0000       2.338867        63.6438 
  66   0.0000       2.403747        65.4093 
  67   0.0000       2.426793        66.0364 
  68   0.0000       2.475056        67.3497 
  69   0.0000       2.525939        68.7343 
  70   0.0000       2.546396        69.2910 
  71   0.0000       2.603918        70.8562 
  72   0.0000       2.638684        71.8022 
  73   0.0000       2.700455        73.4831 
  74   0.0000       2.746357        74.7322 
  75   0.0000       2.815959        76.6261 
  76   0.0000       2.871045        78.1251 
  77   0.0000       2.971425        80.8566 
  78   0.0000       2.979923        81.0878 
  79   0.0000       3.000202        81.6397 
  80   0.0000       3.046119        82.8891 
  81   0.0000       3.063440        83.3604 
  82   0.0000       3.103868        84.4605 
  83   0.0000       3.127611        85.1066 
  84   0.0000       3.184280        86.6487 
  85   0.0000       3.234014        88.0020 
  86   0.0000       3.322203        90.4017 
  87   0.0000       3.387033        92.1658 
  88   0.0000       3.399874        92.5153 
  89   0.0000       3.472705        94.4971 
  90   0.0000       3.524004        95.8930 
  91   0.0000       3.660769        99.6146 
  92   0.0000       3.677595       100.0724 
  93   0.0000       3.819476       103.9332 
  94   0.0000       3.912131       106.4545 
  95   0.0000       4.054078       110.3171 
  96   0.0000       4.120810       112.1329 
  97   0.0000       4.265770       116.0775 
  98   0.0000       4.411273       120.0369 
  99   0.0000       4.555359       123.9576 
 100   0.0000       4.577442       124.5585 
 101   0.0000       4.710670       128.1839 
 102   0.0000       5.203285       141.5886 
 103   0.0000       5.238777       142.5544 
 104   0.0000       5.375375       146.2714 
 105   0.0000       5.382667       146.4698 
 106   0.0000       5.707273       155.3028 
 107   0.0000       5.747800       156.4056 
 108   0.0000       5.905793       160.7048 
 109   0.0000       6.366125       173.2311 
 110   0.0000       6.379512       173.5953 
 111   0.0000       6.761121       183.9795 
 112   0.0000       6.807569       185.2434 
 113   0.0000       6.975113       189.8025 
 114   0.0000      21.990657       598.3962 
 115   0.0000      22.421090       610.1089 
 116   0.0000      43.774213      1191.1569 

                    ********************************
                    * MULLIKEN POPULATION ANALYSIS *
                    ********************************

-----------------------
MULLIKEN ATOMIC CHARGES
-----------------------
   0 O :   -0.408251
   1 C :   -0.059175
   2 C :   -0.125942
   3 H :    0.130094
   4 H :    0.130536
   5 H :    0.157393
   6 H :    0.175344
Sum of atomic charges:    0.0000000

--------------------------------
MULLIKEN REDUCED ORBITAL CHARGES
--------------------------------
  0 O s       :     3.915065  s :     3.915065
      pz      :     1.924863  p :     4.470644
      px      :     1.201546
      py      :     1.344234
      dz2     :     0.002901  d :     0.021428
      dxz     :     0.000244
      dyz     :     0.004920
      dx2y2   :     0.007952
      dxy     :     0.005411
      f0      :     0.000129  f :     0.001115
      f+1     :     0.000061
      f-1     :     0.000246
      f+2     :     0.000140
      f-2     :     0.000036
      f+3     :     0.000258
      f-3     :     0.000245
  1 C s       :     3.197731  s :     3.197731
      pz      :     1.062617  p :     2.699522
      px      :     0.878371
      py      :     0.758535
      dz2     :     0.017269  d :     0.152735
      dxz     :     0.015629
      dyz     :     0.043598
      dx2y2   :     0.021792
      dxy     :     0.054447
      f0      :     0.002008  f :     0.009186
      f+1     :     0.001176
      f-1     :     0.000595
      f+2     :     0.002221
      f-2     :     0.000467
      f+3     :     0.002369
      f-3     :     0.000350
  2 C s       :     3.312129  s :     3.312129
      pz      :     1.058038  p :     2.762062
      px      :     1.009963
      py      :     0.694061
      dz2     :     0.004006  d :     0.047463
      dxz     :     0.025666
      dyz     :     0.002735
      dx2y2   :     0.004663
      dxy     :     0.010394
      f0      :     0.000407  f :     0.004289
      f+1     :     0.001101
      f-1     :     0.000060
      f+2     :     0.000776
      f-2     :     0.000164
      f+3     :     0.000683
      f-3     :     0.001098
  3 H s       :     0.847709  s :     0.847709
      pz      :     0.011731  p :     0.022196
      px      :     0.004834
      py      :     0.005632
  4 H s       :     0.845177  s :     0.845177
      pz      :     0.011636  p :     0.024287
      px      :     0.006626
      py      :     0.006025
  5 H s       :     0.821617  s :     0.821617
      pz      :     0.010526  p :     0.020990
      px      :     0.006924
      py      :     0.003540
  6 H s       :     0.801751  s :     0.801751
      pz      :     0.011069  p :     0.022905
      px      :     0.007577
      py      :     0.004260


                     *******************************
                     * LOEWDIN POPULATION ANALYSIS *
                     *******************************

----------------------
LOEWDIN ATOMIC CHARGES
----------------------
   0 O :   -0.104884
   1 C :   -0.419439
   2 C :    0.009119
   3 H :    0.144337
   4 H :    0.103223
   5 H :    0.140278
   6 H :    0.127368

-------------------------------
LOEWDIN REDUCED ORBITAL CHARGES
-------------------------------
  0 O s       :     3.595344  s :     3.595344
      pz      :     1.855134  p :     4.456549
      px      :     1.161424
      py      :     1.439990
      dz2     :     0.006095  d :     0.049829
      dxz     :     0.000470
      dyz     :     0.013605
      dx2y2   :     0.017251
      dxy     :     0.012408
      f0      :     0.000337  f :     0.003163
      f+1     :     0.000096
      f-1     :     0.000488
      f+2     :     0.000569
      f-2     :     0.000105
      f+3     :     0.000780
      f-3     :     0.000787
  1 C s       :     2.831816  s :     2.831816
      pz      :     1.060125  p :     2.958708
      px      :     1.030490
      py      :     0.868093
      dz2     :     0.086238  d :     0.564734
      dxz     :     0.080739
      dyz     :     0.111827
      dx2y2   :     0.120291
      dxy     :     0.165639
      f0      :     0.012136  f :     0.064181
      f+1     :     0.006486
      f-1     :     0.006312
      f+2     :     0.011781
      f-2     :     0.003467
      f+3     :     0.018233
      f-3     :     0.005767
  2 C s       :     2.935502  s :     2.935502
      pz      :     1.082031  p :     2.821433
      px      :     1.107130
      py      :     0.632272
      dz2     :     0.025711  d :     0.212934
      dxz     :     0.113587
      dyz     :     0.006378
      dx2y2   :     0.032651
      dxy     :     0.034607
      f0      :     0.002751  f :     0.021012
      f+1     :     0.003344
      f-1     :     0.000689
      f+2     :     0.004200
      f-2     :     0.001214
      f+3     :     0.003833
      f-3     :     0.004980
  3 H s       :     0.795859  s :     0.795859
      pz      :     0.032012  p :     0.059804
      px      :     0.013319
      py      :     0.014473
  4 H s       :     0.821235  s :     0.821235
      pz      :     0.037085  p :     0.075542
      px      :     0.020480
      py      :     0.017977
  5 H s       :     0.800650  s :     0.800650
      pz      :     0.031156  p :     0.059072
      px      :     0.018499
      py      :     0.009417
  6 H s       :     0.804338  s :     0.804338
      pz      :     0.034823  p :     0.068294
      px      :     0.021473
      py      :     0.011998


                      *****************************
                      * MAYER POPULATION ANALYSIS *
                      *****************************

  NA   - Mulliken gross atomic population
  ZA   - Total nuclear charge
  QA   - Mulliken gross atomic charge
  VA   - Mayer's total valence
  BVA  - Mayer's bonded valence
  FA   - Mayer's free valence

  ATOM       NA         ZA         QA         VA         BVA        FA
  0 O      8.4083     8.0000    -0.4083     1.7498     1.7498    -0.0000
  1 C      6.0592     6.0000    -0.0592     4.0343     4.0343     0.0000
  2 C      6.1259     6.0000    -0.1259     3.7360     3.7360     0.0000
  3 H      0.8699     1.0000     0.1301     0.9822     0.9822     0.0000
  4 H      0.8695     1.0000     0.1305     0.9758     0.9758     0.0000
  5 H      0.8426     1.0000     0.1574     0.9620     0.9620     0.0000
  6 H      0.8247     1.0000     0.1753     0.9539     0.9539     0.0000

  Mayer bond orders larger than 0.100000
B(  0-O ,  1-C ) :   0.9755 B(  0-O ,  2-C ) :   0.7785 B(  1-C ,  2-C ) :   1.0842 
B(  1-C ,  3-H ) :   0.9849 B(  1-C ,  4-H ) :   0.9739 B(  2-C ,  5-H ) :   0.9450 
B(  2-C ,  6-H ) :   0.9388 

-------
TIMINGS
-------

Total SCF time: 0 days 0 hours 0 min 3 sec 

Total time                  ....       3.142 sec
Sum of individual times     ....       2.914 sec  ( 92.7%)

Fock matrix formation       ....       2.637 sec  ( 83.9%)
  Split-RI-J                ....       0.270 sec  ( 10.3% of F)
  Chain of spheres X        ....       1.797 sec  ( 68.2% of F)
  XC integration            ....       0.495 sec  ( 18.8% of F)
    Basis function eval.    ....       0.137 sec  ( 27.6% of XC)
    Density eval.           ....       0.101 sec  ( 20.3% of XC)
    XC-Functional eval.     ....       0.031 sec  (  6.2% of XC)
    XC-Potential eval.      ....       0.173 sec  ( 35.0% of XC)
Diagonalization             ....       0.018 sec  (  0.6%)
Density matrix formation    ....       0.002 sec  (  0.1%)
Population analysis         ....       0.002 sec  (  0.1%)
Initial guess               ....       0.016 sec  (  0.5%)
Orbital Transformation      ....       0.000 sec  (  0.0%)
Orbital Orthonormalization  ....       0.000 sec  (  0.0%)
DIIS solution               ....       0.015 sec  (  0.5%)
SOSCF solution              ....       0.017 sec  (  0.5%)
Grid generation             ....       0.207 sec  (  6.6%)

Maximum memory used throughout the entire SCF-calculation: 61.0 MB


-------------------------------------------------------------------------------
                          DFT DISPERSION CORRECTION                            
                                                                               
                              DFTD3 V3.1  Rev 1                                
                          USING Becke-Johnson damping                          
-------------------------------------------------------------------------------
The PBE0 functional is recognized
Active option DFTDOPT                   ...         4   

molecular C6(AA) [au] = 394.887216 


            DFT-D V3
 parameters
 s6 scaling factor         :     1.0000 
 a1 scaling factor         :     0.4145 
 s8 scaling factor         :     1.2177 
 a2 scaling factor         :     4.8593 
 ad hoc parameters k1-k3   :    16.0000     1.3333    -4.0000 

 Edisp/kcal,au: -1.641526113298  -0.002615938095 
 E6   /kcal   :  -1.071043576 
 E8   /kcal   :  -0.570482537 
 % E8         :  34.753180749 

-------------------------   ----------------
Dispersion correction           -0.002615938
-------------------------   ----------------


-------------------------   --------------------
FINAL SINGLE POINT ENERGY      -153.521442039445
-------------------------   --------------------



           ************************************************************
           *        Program running with 8 parallel MPI-processes     *
           *              working on a common directory               *
           ************************************************************
------------------------------------------------------------------------------
                         ORCA SCF GRADIENT CALCULATION
------------------------------------------------------------------------------

 ... reading COSX grid (gridx3)
Gradient of the Kohn-Sham DFT energy:
Kohn-Sham wavefunction type      ... RKS
Hartree-Fock exchange scaling    ...    0.250
Number of operators              ...    1
Number of atoms                  ...    7
Basis set dimensions             ...  117
Integral neglect threshold       ... 2.5e-11
Integral primitive cutoff        ... 2.5e-12
SHARK Integral package           ... ON

Nuc. rep. gradient       (SHARK) ... done (  0.0 sec)
HCore & Overlap gradient (SHARK) ... done (  0.0 sec)
RI-J gradient            (SHARK) ... done (  0.1 sec)
COSX-gradient                    ... done (  0.3 sec)
Exchange-correlation gradient    ... done
Dispersion correction            ... done

------------------
CARTESIAN GRADIENT
------------------

   1   O   :   -0.068708552   -0.015490548    0.007091272
   2   C   :   -0.010021886   -0.044663826   -0.099613632
   3   C   :    0.030880127    0.010500128    0.049947167
   4   H   :    0.001941822    0.042956389    0.022067234
   5   H   :    0.021008133    0.047594808    0.050416410
   6   H   :    0.015513184   -0.023374695   -0.019419209
   7   H   :    0.009354583   -0.017487541   -0.010548726

Difference to translation invariance:
           :   -0.0000325901    0.0000347150   -0.0000594846

Difference to rotation invariance:
           :   -0.0001200012   -0.0001691638    0.0004760955

Norm of the cartesian gradient     ...    0.1727454186
RMS gradient                       ...    0.0376961408
MAX gradient                       ...    0.0996136322

-------
TIMINGS
-------

Total SCF gradient time            ...        0.669 sec

One electron gradient       ....       0.010 sec  (  1.5%)
RI-J Coulomb gradient       ....       0.076 sec  ( 11.4%)
COSX gradient               ....       0.296 sec  ( 44.3%)
XC gradient                 ....       0.145 sec  ( 21.7%)

Maximum memory used throughout the entire SCFGRAD-calculation: 35.9 MB

                            ***************************************
                            *     ORCA property calculations      *
                            ***************************************

                                    ---------------------
                                    Active property flags
                                    ---------------------
   (+) Dipole Moment


------------------------------------------------------------------------------
                       ORCA ELECTRIC PROPERTIES CALCULATION
------------------------------------------------------------------------------

Dipole Moment Calculation                       ... on
Quadrupole Moment Calculation                   ... off
Polarizability Calculation                      ... off
GBWName                                         ... ox_gs_F_orca0004.gbw
Electron density                                ... ox_gs_F_orca0004.scfp
The origin for moment calculation is the CENTER OF MASS  = (-0.864533,  0.072232  0.056335)

-------------
DIPOLE MOMENT
-------------
                                X             Y             Z
Electronic contribution:     -0.83300       1.28341      -0.07216
Nuclear contribution   :      1.76070      -2.50033       0.03449
                        -----------------------------------------
Total Dipole Moment    :      0.92771      -1.21692      -0.03767
                        -----------------------------------------
Magnitude (a.u.)       :      1.53067
Magnitude (Debye)      :      3.89065



--------------------
Rotational spectrum 
--------------------
 
Rotational constants in cm-1:     1.261332     0.365661     0.321434 
Rotational constants in MHz : 37813.782262 10962.231450  9636.359740 

 Dipole components along the rotational axes: 
x,y,z [a.u.] :     1.454934    -0.475393     0.010737 
x,y,z [Debye]:     3.698148    -1.208352     0.027291 

 

Timings for individual modules:

Sum of individual times         ...        4.462 sec (=   0.074 min)
GTO integral calculation        ...        0.297 sec (=   0.005 min)   6.7 %
SCF iterations                  ...        3.303 sec (=   0.055 min)  74.0 %
SCF Gradient evaluation         ...        0.862 sec (=   0.014 min)  19.3 %
                             ****ORCA TERMINATED NORMALLY****
TOTAL RUN TIME: 0 days 0 hours 0 minutes 4 seconds 717 msec
