
                                 *****************
                                 * O   R   C   A *
                                 *****************

                                            #,                                       
                                            ###                                      
                                            ####                                     
                                            #####                                    
                                            ######                                   
                                           ########,                                 
                                     ,,################,,,,,                         
                               ,,#################################,,                 
                          ,,##########################################,,             
                       ,#########################################, ''#####,          
                    ,#############################################,,   '####,        
                  ,##################################################,,,,####,       
                ,###########''''           ''''###############################       
              ,#####''   ,,,,##########,,,,          '''####'''          '####       
            ,##' ,,,,###########################,,,                        '##       
           ' ,,###''''                  '''############,,,                           
         ,,##''                                '''############,,,,        ,,,,,,###''
      ,#''                                            '''#######################'''  
     '                                                          ''''####''''         
             ,#######,   #######,   ,#######,      ##                                
            ,#'     '#,  ##    ##  ,#'     '#,    #''#        ######   ,####,        
            ##       ##  ##   ,#'  ##            #'  '#       #        #'  '#        
            ##       ##  #######   ##           ,######,      #####,   #    #        
            '#,     ,#'  ##    ##  '#,     ,#' ,#      #,         ##   #,  ,#        
             '#######'   ##     ##  '#######'  #'      '#     #####' # '####'        



                  #######################################################
                  #                        -***-                        #
                  #          Department of theory and spectroscopy      #
                  #    Directorship and core code : Frank Neese         #
                  #        Max Planck Institute fuer Kohlenforschung    #
                  #                Kaiser Wilhelm Platz 1               #
                  #                 D-45470 Muelheim/Ruhr               #
                  #                      Germany                        #
                  #                                                     #
                  #                  All rights reserved                #
                  #                        -***-                        #
                  #######################################################


                         Program Version 5.0.2 -  RELEASE  -


 With contributions from (in alphabetic order):
   Daniel Aravena         : Magnetic Suceptibility
   Michael Atanasov       : Ab Initio Ligand Field Theory (pilot matlab implementation)
   Alexander A. Auer      : GIAO ZORA, VPT2 properties, NMR spectrum
   Ute Becker             : Parallelization
   Giovanni Bistoni       : ED, misc. LED, open-shell LED, HFLD
   Martin Brehm           : Molecular dynamics
   Dmytro Bykov           : SCF Hessian
   Vijay G. Chilkuri      : MRCI spin determinant printing, contributions to CSF-ICE
   Dipayan Datta          : RHF DLPNO-CCSD density
   Achintya Kumar Dutta   : EOM-CC, STEOM-CC
   Dmitry Ganyushin       : Spin-Orbit,Spin-Spin,Magnetic field MRCI
   Miquel Garcia          : C-PCM and meta-GGA Hessian, CC/C-PCM, Gaussian charge scheme
   Yang Guo               : DLPNO-NEVPT2, F12-NEVPT2, CIM, IAO-localization
   Andreas Hansen         : Spin unrestricted coupled pair/coupled cluster methods
   Benjamin Helmich-Paris : MC-RPA, TRAH-SCF, COSX integrals
   Lee Huntington         : MR-EOM, pCC
   Robert Izsak           : Overlap fitted RIJCOSX, COSX-SCS-MP3, EOM
   Marcus Kettner         : VPT2
   Christian Kollmar      : KDIIS, OOCD, Brueckner-CCSD(T), CCSD density, CASPT2, CASPT2-K
   Simone Kossmann        : Meta GGA functionals, TD-DFT gradient, OOMP2, MP2 Hessian
   Martin Krupicka        : Initial AUTO-CI
   Lucas Lang             : DCDCAS
   Marvin Lechner         : AUTO-CI (C++ implementation), FIC-MRCC
   Dagmar Lenk            : GEPOL surface, SMD
   Dimitrios Liakos       : Extrapolation schemes; Compound Job, initial MDCI parallelization
   Dimitrios Manganas     : Further ROCIS development; embedding schemes
   Dimitrios Pantazis     : SARC Basis sets
   Anastasios Papadopoulos: AUTO-CI, single reference methods and gradients
   Taras Petrenko         : DFT Hessian,TD-DFT gradient, ASA, ECA, R-Raman, ABS, FL, XAS/XES, NRVS
   Peter Pinski           : DLPNO-MP2, DLPNO-MP2 Gradient
   Christoph Reimann      : Effective Core Potentials
   Marius Retegan         : Local ZFS, SOC
   Christoph Riplinger    : Optimizer, TS searches, QM/MM, DLPNO-CCSD(T), (RO)-DLPNO pert. Triples
   Tobias Risthaus        : Range-separated hybrids, TD-DFT gradient, RPA, STAB
   Michael Roemelt        : Original ROCIS implementation
   Masaaki Saitow         : Open-shell DLPNO-CCSD energy and density
   Barbara Sandhoefer     : DKH picture change effects
   Avijit Sen             : IP-ROCIS
   Kantharuban Sivalingam : CASSCF convergence, NEVPT2, FIC-MRCI
   Bernardo de Souza      : ESD, SOC TD-DFT
   Georgi Stoychev        : AutoAux, RI-MP2 NMR, DLPNO-MP2 response
   Willem Van den Heuvel  : Paramagnetic NMR
   Boris Wezisla          : Elementary symmetry handling
   Frank Wennmohs         : Technical directorship


 We gratefully acknowledge several colleagues who have allowed us to
 interface, adapt or use parts of their codes:
   Stefan Grimme, W. Hujo, H. Kruse, P. Pracht,  : VdW corrections, initial TS optimization,
                  C. Bannwarth, S. Ehlert          DFT functionals, gCP, sTDA/sTD-DF
   Ed Valeev, F. Pavosevic, A. Kumar             : LibInt (2-el integral package), F12 methods
   Garnet Chan, S. Sharma, J. Yang, R. Olivares  : DMRG
   Ulf Ekstrom                                   : XCFun DFT Library
   Mihaly Kallay                                 : mrcc  (arbitrary order and MRCC methods)
   Jiri Pittner, Ondrej Demel                    : Mk-CCSD
   Frank Weinhold                                : gennbo (NPA and NBO analysis)
   Christopher J. Cramer and Donald G. Truhlar   : smd solvation model
   Lars Goerigk                                  : TD-DFT with DH, B97 family of functionals
   V. Asgeirsson, H. Jonsson                     : NEB implementation
   FAccTs GmbH                                   : IRC, NEB, NEB-TS, DLPNO-Multilevel, CI-OPT
                                                   MM, QMMM, 2- and 3-layer-ONIOM, Crystal-QMMM,
                                                   LR-CPCM, SF, NACMEs, symmetry and pop. for TD-DFT,
                                                   nearIR, NL-DFT gradient (VV10), updates on ESD,
                                                   ML-optimized integration grids
   S Lehtola, MJT Oliveira, MAL Marques          : LibXC Library
   Liviu Ungur et al                             : ANISO software


 Your calculation uses the libint2 library for the computation of 2-el integrals
 For citations please refer to: http://libint.valeyev.net

 Your ORCA version has been built with support for libXC version: 5.1.0
 For citations please refer to: https://tddft.org/programs/libxc/

 This ORCA versions uses:
   CBLAS   interface :  Fast vector & matrix operations
   LAPACKE interface :  Fast linear algebra routines
   SCALAPACK package :  Parallel linear algebra routines
   Shared memory     :  Shared parallel matrices
   BLAS/LAPACK       :  OpenBLAS 0.3.15  USE64BITINT DYNAMIC_ARCH NO_AFFINITY SkylakeX SINGLE_THREADED
        Core in use  :  SkylakeX
   Copyright (c) 2011-2014, The OpenBLAS Project


Your calculation utilizes the atom-pairwise dispersion correction
with the Becke-Johnson damping scheme (D3BJ)
Cite in your paper:
S.Grimme, S.Ehrlich, L.Goerigk, J Comput Chem, (2011), 32, 1456–1465 
S.Grimme, J.Antony, S.Ehrlich and H.Krieg, J.Chem.Phys., 132, (2010), 154104 
   

================================================================================

----- Orbital basis set information -----
Your calculation utilizes the basis: def2-TZVP
   F. Weigend and R. Ahlrichs, Phys. Chem. Chem. Phys. 7, 3297 (2005).

----- AuxJ basis set information -----
Your calculation utilizes the auxiliary basis: def2/J
   F. Weigend, Phys. Chem. Chem. Phys. 8, 1057 (2006).

================================================================================
                                        WARNINGS
                       Please study these warnings very carefully!
================================================================================


INFO   : the flag for use of the SHARK integral package has been found!

================================================================================
                                       INPUT FILE
================================================================================
NAME = ox_gs_G_orca0001.inp
|  1> ! engrad PBE0 D3BJ def2-TZVP  
|  2> %pal nprocs 8 end
|  3> %maxcore 3000
|  4>  
|  5> *xyz 0 1 
|  6> O   -1.509313873139616 0.7066718116815578 0.0384701801207664
|  7> C   -0.7771366468708831 -0.42918791363806164 0.029148320592753754
|  8> C   0.7839552232264013 -0.47806368272449035 -0.021349760026887828
|  9> H   -1.330504353666171 -0.6263874341946936 0.8319714872394037
| 10> H   -1.378036314425132 -0.6191881616747299 -0.9291682960842369
| 11> H   1.2531132590507303 -0.6972370533635169 -0.903344662585884
| 12> H   1.277680496655515 -0.6246127030328228 0.8375492887460069
| 13> *
| 14> 
| 15>                          ****END OF INPUT****
================================================================================

                     *******************************
                     * Energy+Gradient Calculation *
                     *******************************

---------------------------------
CARTESIAN COORDINATES (ANGSTROEM)
---------------------------------
  O     -1.509314    0.706672    0.038470
  C     -0.777137   -0.429188    0.029148
  C      0.783955   -0.478064   -0.021350
  H     -1.330504   -0.626387    0.831971
  H     -1.378036   -0.619188   -0.929168
  H      1.253113   -0.697237   -0.903345
  H      1.277680   -0.624613    0.837549

----------------------------
CARTESIAN COORDINATES (A.U.)
----------------------------
  NO LB      ZA    FRAG     MASS         X           Y           Z
   0 O     8.0000    0    15.999   -2.852190    1.335416    0.072698
   1 C     6.0000    0    12.011   -1.468575   -0.811048    0.055082
   2 C     6.0000    0    12.011    1.481461   -0.903409   -0.040345
   3 H     1.0000    0     1.008   -2.514289   -1.183701    1.572198
   4 H     1.0000    0     1.008   -2.604111   -1.170096   -1.755874
   5 H     1.0000    0     1.008    2.368041   -1.317587   -1.707074
   6 H     1.0000    0     1.008    2.414466   -1.180347    1.582739

--------------------------------
INTERNAL COORDINATES (ANGSTROEM)
--------------------------------
 O      0   0   0     0.000000000000     0.00000000     0.00000000
 C      1   0   0     1.351424323939     0.00000000     0.00000000
 C      2   1   0     1.562672942056   124.59310546     0.00000000
 H      2   1   3     0.994800737201    81.93320032   127.47600499
 H      2   1   3     1.146974822095    82.01892777   239.61425982
 H      3   2   1     1.022771351337   119.52597917   257.52028569
 H      3   2   1     1.001473333124   117.99291234    99.31813925

---------------------------
INTERNAL COORDINATES (A.U.)
---------------------------
 O      0   0   0     0.000000000000     0.00000000     0.00000000
 C      1   0   0     2.553821862965     0.00000000     0.00000000
 C      2   1   0     2.953023897375   124.59310546     0.00000000
 H      2   1   3     1.879900951133    81.93320032   127.47600499
 H      2   1   3     2.167468296263    82.01892777   239.61425982
 H      3   2   1     1.932757751648   119.52597917   257.52028569
 H      3   2   1     1.892510330030   117.99291234    99.31813925

---------------------
BASIS SET INFORMATION
---------------------
There are 3 groups of distinct atoms

 Group   1 Type O   : 11s6p2d1f contracted to 5s3p2d1f pattern {62111/411/11/1}
 Group   2 Type C   : 11s6p2d1f contracted to 5s3p2d1f pattern {62111/411/11/1}
 Group   3 Type H   : 5s1p contracted to 3s1p pattern {311/1}

Atom   0O    basis set group =>   1
Atom   1C    basis set group =>   2
Atom   2C    basis set group =>   2
Atom   3H    basis set group =>   3
Atom   4H    basis set group =>   3
Atom   5H    basis set group =>   3
Atom   6H    basis set group =>   3
---------------------------------
AUXILIARY/J BASIS SET INFORMATION
---------------------------------
There are 3 groups of distinct atoms

 Group   1 Type O   : 12s5p4d2f1g contracted to 6s4p3d1f1g pattern {711111/2111/211/2/1}
 Group   2 Type C   : 12s5p4d2f1g contracted to 6s4p3d1f1g pattern {711111/2111/211/2/1}
 Group   3 Type H   : 5s2p1d contracted to 3s1p1d pattern {311/2/1}

Atom   0O    basis set group =>   1
Atom   1C    basis set group =>   2
Atom   2C    basis set group =>   2
Atom   3H    basis set group =>   3
Atom   4H    basis set group =>   3
Atom   5H    basis set group =>   3
Atom   6H    basis set group =>   3


           ************************************************************
           *        Program running with 8 parallel MPI-processes     *
           *              working on a common directory               *
           ************************************************************
------------------------------------------------------------------------------
                           ORCA GTO INTEGRAL CALCULATION
                           -- RI-GTO INTEGRALS CHOSEN --
------------------------------------------------------------------------------
------------------------------------------------------------------------------
                   ___                                                        
                  /   \      - P O W E R E D   B Y -                         
                 /     \                                                     
                 |  |  |   _    _      __       _____    __    __             
                 |  |  |  | |  | |    /  \     |  _  \  |  |  /  |          
                  \  \/   | |  | |   /    \    | | | |  |  | /  /          
                 / \  \   | |__| |  /  /\  \   | |_| |  |  |/  /          
                |  |  |   |  __  | /  /__\  \  |    /   |      \           
                |  |  |   | |  | | |   __   |  |    \   |  |\   \          
                \     /   | |  | | |  |  |  |  | |\  \  |  | \   \       
                 \___/    |_|  |_| |__|  |__|  |_| \__\ |__|  \__/        
                                                                              
                      - O R C A' S   B I G   F R I E N D -                    
                                      &                                       
                       - I N T E G R A L  F E E D E R -                       
                                                                              
 v1 FN, 2020, v2 2021                                                         
------------------------------------------------------------------------------


Reading SHARK input file ox_gs_G_orca0001.SHARKINP.tmp ... ok
----------------------
SHARK INTEGRAL PACKAGE
----------------------

Number of atoms                             ...      7
Number of basis functions                   ...    117
Number of shells                            ...     49
Maximum angular momentum                    ...      3
Integral batch strategy                     ... SHARK/LIBINT Hybrid
RI-J (if used) integral strategy            ... SPLIT-RIJ (Revised 2003 algorithm where possible)
Printlevel                                  ...      1
Contraction scheme used                     ... SEGMENTED contraction
Coulomb Range Separation                    ... NOT USED
Exchange Range Separation                   ... NOT USED
Finite Nucleus Model                        ... NOT USED
Auxiliary Coulomb fitting basis             ... AVAILABLE
   # of basis functions in Aux-J            ...    191
   # of shells in Aux-J                     ...     65
   Maximum angular momentum in Aux-J        ...      4
Auxiliary J/K fitting basis                 ... NOT available
Auxiliary Correlation fitting basis         ... NOT available
Auxiliary 'external' fitting basis          ... NOT available
Integral threshold                          ...     2.500000e-11
Primitive cut-off                           ...     2.500000e-12
Primitive pair pre-selection threshold      ...     2.500000e-12

Calculating pre-screening integrals         ... done (  0.0 sec) Dimension = 49
Organizing shell pair data                  ... done (  0.0 sec)
Shell pair information
Total number of shell pairs                 ...      1225
Shell pairs after pre-screening             ...      1211
Total number of primitive shell pairs       ...      3648
Primitive shell pairs kept                  ...      3056
          la=0 lb=0:    368 shell pairs
          la=1 lb=0:    348 shell pairs
          la=1 lb=1:     91 shell pairs
          la=2 lb=0:    161 shell pairs
          la=2 lb=1:     78 shell pairs
          la=2 lb=2:     21 shell pairs
          la=3 lb=0:     81 shell pairs
          la=3 lb=1:     39 shell pairs
          la=3 lb=2:     18 shell pairs
          la=3 lb=3:      6 shell pairs

Calculating one electron integrals          ... done (  0.0 sec)
Calculating RI/J V-Matrix + Cholesky decomp.... done (  0.0 sec)
Calculating Nuclear repulsion               ... done (  0.0 sec) ENN=     67.903011175410 Eh

SHARK setup successfully completed in   0.1 seconds

Maximum memory used throughout the entire GTOINT-calculation: 14.9 MB


           ************************************************************
           *        Program running with 8 parallel MPI-processes     *
           *              working on a common directory               *
           ************************************************************
-------------------------------------------------------------------------------
                                 ORCA SCF
-------------------------------------------------------------------------------

------------
SCF SETTINGS
------------
Hamiltonian:
 Density Functional     Method          .... DFT(GTOs)
 Exchange Functional    Exchange        .... PBE
   PBE kappa parameter   XKappa         ....  0.804000
   PBE mue parameter    XMuePBE         ....  0.219520
 Correlation Functional Correlation     .... PBE
   PBE beta parameter  CBetaPBE         ....  0.066725
 LDA part of GGA corr.  LDAOpt          .... PW91-LDA
 Gradients option       PostSCFGGA      .... off
 Hybrid DFT is turned on
   Fraction HF Exchange ScalHFX         ....  0.250000
   Scaling of DF-GGA-X  ScalDFX         ....  0.750000
   Scaling of DF-GGA-C  ScalDFC         ....  1.000000
   Scaling of DF-LDA-C  ScalLDAC        ....  1.000000
   Perturbative correction              ....  0.000000
   Density functional embedding theory  .... OFF
   NL short-range parameter             ....  6.900000
 RI-approximation to the Coulomb term is turned on
   Number of AuxJ basis functions       .... 191
   RIJ-COSX (HFX calculated with COS-X)).... on


General Settings:
 Integral files         IntName         .... ox_gs_G_orca0001
 Hartree-Fock type      HFTyp           .... RHF
 Total Charge           Charge          ....    0
 Multiplicity           Mult            ....    1
 Number of Electrons    NEL             ....   24
 Basis Dimension        Dim             ....  117
 Nuclear Repulsion      ENuc            ....     67.9030111754 Eh

Convergence Acceleration:
 DIIS                   CNVDIIS         .... on
   Start iteration      DIISMaxIt       ....    12
   Startup error        DIISStart       ....  0.200000
   # of expansion vecs  DIISMaxEq       ....     5
   Bias factor          DIISBfac        ....   1.050
   Max. coefficient     DIISMaxC        ....  10.000
 Trust-Rad. Augm. Hess. CNVTRAH         .... auto
   Auto Start mean grad. ratio tolernc. ....  1.125000
   Auto Start start iteration           ....    20
   Auto Start num. interpolation iter.  ....    10
   Max. Number of Micro iterations      ....    16
   Max. Number of Macro iterations      .... Maxiter - #DIIS iter
   Number of Davidson start vectors     ....     2
   Converg. threshold I  (grad. norm)   ....   1.000e-05
   Converg. threshold II (energy diff.) ....   1.000e-08
   Grad. Scal. Fac. for Micro threshold ....   0.100
   Minimum threshold for Micro iter.    ....   0.010
   NR start threshold (gradient norm)   ....   0.001
   Initial trust radius                 ....   0.400
   Minimum AH scaling param. (alpha)    ....   1.000
   Maximum AH scaling param. (alpha)    .... 1000.000
   Orbital update algorithm             .... Taylor
   White noise on init. David. guess    .... on
   Maximum white noise                  ....   0.010
   Quad. conv. algorithm                .... NR
 SOSCF                  CNVSOSCF        .... on
   Start iteration      SOSCFMaxIt      ....   150
   Startup grad/error   SOSCFStart      ....  0.003300
 Level Shifting         CNVShift        .... on
   Level shift para.    LevelShift      ....    0.2500
   Turn off err/grad.   ShiftErr        ....    0.0010
 Zerner damping         CNVZerner       .... off
 Static damping         CNVDamp         .... on
   Fraction old density DampFac         ....    0.7000
   Max. Damping (<1)    DampMax         ....    0.9800
   Min. Damping (>=0)   DampMin         ....    0.0000
   Turn off err/grad.   DampErr         ....    0.1000
 Fernandez-Rico         CNVRico         .... off

SCF Procedure:
 Maximum # iterations   MaxIter         ....   125
 SCF integral mode      SCFMode         .... Direct
   Integral package                     .... SHARK and LIBINT hybrid scheme
 Reset frequency        DirectResetFreq ....    20
 Integral Threshold     Thresh          ....  2.500e-11 Eh
 Primitive CutOff       TCut            ....  2.500e-12 Eh

Convergence Tolerance:
 Convergence Check Mode ConvCheckMode   .... Total+1el-Energy
 Convergence forced     ConvForced      .... 0
 Energy Change          TolE            ....  1.000e-08 Eh
 1-El. energy change                    ....  1.000e-05 Eh
 Orbital Gradient       TolG            ....  1.000e-05
 Orbital Rotation angle TolX            ....  1.000e-05
 DIIS Error             TolErr          ....  5.000e-07


Diagonalization of the overlap matrix:
Smallest eigenvalue                        ... 9.176e-04
Time for diagonalization                   ...    0.001 sec
Threshold for overlap eigenvalues          ... 1.000e-08
Number of eigenvalues below threshold      ... 0
Time for construction of square roots      ...    0.001 sec
Total time needed                          ...    0.003 sec

Time for model grid setup =    0.023 sec

------------------------------
INITIAL GUESS: MODEL POTENTIAL
------------------------------
Loading Hartree-Fock densities                     ... done
Calculating cut-offs                               ... done
Initializing the effective Hamiltonian             ... done
Setting up the integral package (SHARK)            ... done
Starting the Coulomb interaction                   ... done (   0.0 sec)
Reading the grid                                   ... done
Mapping shells                                     ... done
Starting the XC term evaluation                    ... done (   0.0 sec)
  promolecular density results
     # of electrons  =     23.998019877
     EX              =    -19.496405761
     EC              =     -0.768996181
     EX+EC           =    -20.265401942
Transforming the Hamiltonian                       ... done (   0.0 sec)
Diagonalizing the Hamiltonian                      ... done (   0.0 sec)
Back transforming the eigenvectors                 ... done (   0.0 sec)
Now organizing SCF variables                       ... done
                      ------------------
                      INITIAL GUESS DONE (   0.0 sec)
                      ------------------
-------------------
DFT GRID GENERATION
-------------------

General Integration Accuracy     IntAcc      ... 4.388
Radial Grid Type                 RadialGrid  ... OptM3 with GC (2021)
Angular Grid (max. ang.)         AngularGrid ... 4 (Lebedev-302)
Angular grid pruning method      GridPruning ... 4 (adaptive)
Weight generation scheme         WeightScheme... Becke
Basis function cutoff            BFCut       ... 1.0000e-11
Integration weight cutoff        WCut        ... 1.0000e-14
Angular grids for H and He will be reduced by one unit
Partially contracted basis set               ... off
Rotationally invariant grid construction     ... off

Total number of grid points                  ...    31336
Total number of batches                      ...      493
Average number of points per batch           ...       63
Average number of grid points per atom       ...     4477
Time for grid setup =    0.108 sec

--------------------
COSX GRID GENERATION
--------------------

GRIDX 1
-------
General Integration Accuracy     IntAcc      ... 3.816
Radial Grid Type                 RadialGrid  ... OptM3 with GC (2021)
Angular Grid (max. ang.)         AngularGrid ... 1 (Lebedev-50)
Angular grid pruning method      GridPruning ... 4 (adaptive)
Weight generation scheme         WeightScheme... Becke
Basis function cutoff            BFCut       ... 1.0000e-11
Integration weight cutoff        WCut        ... 1.0000e-14
Angular grids for H and He will be reduced by one unit
Partially contracted basis set               ... on
Rotationally invariant grid construction     ... off

Total number of grid points                  ...     4041
Total number of batches                      ...       66
Average number of points per batch           ...       61
Average number of grid points per atom       ...      577
UseSFitting                                  ... on

GRIDX 2
-------
General Integration Accuracy     IntAcc      ... 4.020
Radial Grid Type                 RadialGrid  ... OptM3 with GC (2021)
Angular Grid (max. ang.)         AngularGrid ... 2 (Lebedev-110)
Angular grid pruning method      GridPruning ... 4 (adaptive)
Weight generation scheme         WeightScheme... Becke
Basis function cutoff            BFCut       ... 1.0000e-11
Integration weight cutoff        WCut        ... 1.0000e-14
Angular grids for H and He will be reduced by one unit
Partially contracted basis set               ... on
Rotationally invariant grid construction     ... off

Total number of grid points                  ...     8740
Total number of batches                      ...      140
Average number of points per batch           ...       62
Average number of grid points per atom       ...     1249
UseSFitting                                  ... on

GRIDX 3
-------
General Integration Accuracy     IntAcc      ... 4.338
Radial Grid Type                 RadialGrid  ... OptM3 with GC (2021)
Angular Grid (max. ang.)         AngularGrid ... 3 (Lebedev-194)
Angular grid pruning method      GridPruning ... 4 (adaptive)
Weight generation scheme         WeightScheme... Becke
Basis function cutoff            BFCut       ... 1.0000e-11
Integration weight cutoff        WCut        ... 1.0000e-14
Angular grids for H and He will be reduced by one unit
Partially contracted basis set               ... on
Rotationally invariant grid construction     ... off

Total number of grid points                  ...    19279
Total number of batches                      ...      305
Average number of points per batch           ...       63
Average number of grid points per atom       ...     2754
UseSFitting                                  ... on

Time for X-Grid setup             =    0.071 sec

--------------
SCF ITERATIONS
--------------
ITER       Energy         Delta-E        Max-DP      RMS-DP      [F,P]     Damp
               ***  Starting incremental Fock matrix formation  ***
  0   -153.1516543636   0.000000000000 0.46774824  0.00795595  0.3859443 0.7000
  1   -153.3055695666  -0.153915202926 0.09949434  0.00271155  0.1022627 0.7000
                               ***Turning on DIIS***
  2   -153.2713626106   0.034206955953 0.12050875  0.00236712  0.1330916 0.7000
  3   -153.3253640293  -0.054001418642 0.33392952  0.00624061  0.0569392 0.0000
  4   -153.4050557991  -0.079691769799 0.00892310  0.00029010  0.1365831 0.7000
  5   -153.4094451683  -0.004389369199 0.01076121  0.00035685  0.1272603 0.7000
  6   -153.4123198509  -0.002874682613 0.01025868  0.00035745  0.1210860 0.7000
  7   -153.4141733844  -0.001853533555 0.00897546  0.00033159  0.1168679 0.7000
  8   -153.4157754767  -0.001602092282 0.03922819  0.00107160  0.1127524 0.7000
  9   -153.4295873360  -0.013811859298 0.04254109  0.00152729  0.0249272 0.0000
 10   -153.4262976695   0.003289666455 0.02871115  0.00063700  0.0930154 0.0000
 11   -153.4345445443  -0.008246874759 0.01571954  0.00040192  0.0552355 0.0000
 12   -153.4377995930  -0.003255048731 0.00800190  0.00024858  0.0304139 0.0000
 13   -153.4389109919  -0.001111398830 0.00428104  0.00015159  0.0140068 0.0000
 14   -153.4392511864  -0.000340194557 0.00339072  0.00011160  0.0058578 0.0000
                      *** Initiating the SOSCF procedure ***
                           *** Shutting down DIIS ***
                      *** Re-Reading the Fockian *** 
                      *** Removing any level shift *** 
ITER      Energy       Delta-E        Grad      Rot      Max-DP    RMS-DP
 15   -153.43938832  -0.0001371291  0.001873  0.001873  0.002215  0.000093
               *** Restarting incremental Fock matrix formation ***
 16   -153.43948086  -0.0000925445  0.001910  0.020920  0.006565  0.000287
 17   -153.43966730  -0.0001864374  0.001989  0.196097  0.047898  0.002299
 18   -153.43461037   0.0050569300  0.024980  0.153066  0.037789  0.001799
 19   -153.43990406  -0.0052936961  0.001374  0.016571  0.003257  0.000187
 20   -153.43995931  -0.0000552501  0.001123  0.025515  0.005997  0.000296
 21   -153.44000406  -0.0000447507  0.000549  0.002728  0.000845  0.000038
 22   -153.44000730  -0.0000032382  0.000091  0.001241  0.000327  0.000017
 23   -153.44000755  -0.0000002517  0.000028  0.000121  0.000073  0.000002
 24   -153.44000757  -0.0000000175  0.000005  0.000058  0.000015  0.000001
                  ***Gradient check signals convergence***
              ***Rediagonalizing the Fockian in SOSCF/NRSCF***

               *****************************************************
               *                     SUCCESS                       *
               *           SCF CONVERGED AFTER  25 CYCLES          *
               *****************************************************

Old exchange energy                            =     -4.966310961 Eh
New exchange energy                            =     -4.966310069 Eh
Exchange energy change after final integration =      0.000000893 Eh
Total energy after final integration           =   -153.440006680 Eh
Final COS-X integration done in                =     0.274 sec

----------------
TOTAL SCF ENERGY
----------------

Total Energy       :         -153.44000668 Eh           -4175.31485 eV

Components:
Nuclear Repulsion  :           67.90301118 Eh            1847.73487 eV
Electronic Energy  :         -221.34301786 Eh           -6023.04972 eV
One Electron Energy:         -342.44257257 Eh           -9318.33613 eV
Two Electron Energy:          121.09955471 Eh            3295.28641 eV
Max COSX asymmetry :            0.00000251 Eh               0.00007 eV

Virial components:
Potential Energy   :         -306.66026937 Eh           -8344.65016 eV
Kinetic Energy     :          153.22026269 Eh            4169.33531 eV
Virial Ratio       :            2.00143417


DFT components:
N(Alpha)           :       11.999993234319 electrons
N(Beta)            :       11.999993234319 electrons
N(Total)           :       23.999986468638 electrons
E(X)               :      -14.936370444500 Eh       
E(C)               :       -0.775417283054 Eh       
E(XC)              :      -15.711787727554 Eh       
DFET-embed. en.    :        0.000000000000 Eh       

---------------
SCF CONVERGENCE
---------------

  Last Energy change         ...   -9.9308e-10  Tolerance :   1.0000e-08
  Last MAX-Density change    ...    1.1102e-15  Tolerance :   1.0000e-07
  Last RMS-Density change    ...    2.3471e-17  Tolerance :   5.0000e-09
  Last Orbital Gradient      ...    1.2914e-06  Tolerance :   1.0000e-05
  Last Orbital Rotation      ...    1.1257e-05  Tolerance :   1.0000e-05

             **** THE GBW FILE WAS UPDATED (ox_gs_G_orca0001.gbw) ****
             **** DENSITY ox_gs_G_orca0001.scfp WAS UPDATED ****
             **** ENERGY FILE WAS UPDATED (ox_gs_G_orca0001.en.tmp) ****
             **** THE GBW FILE WAS UPDATED (ox_gs_G_orca0001.gbw) ****
             **** DENSITY ox_gs_G_orca0001.scfp WAS UPDATED ****
----------------
ORBITAL ENERGIES
----------------

  NO   OCC          E(Eh)            E(eV) 
   0   2.0000     -19.180587      -521.9303 
   1   2.0000     -10.282578      -279.8032 
   2   2.0000     -10.281252      -279.7671 
   3   2.0000      -1.028946       -27.9990 
   4   2.0000      -0.767210       -20.8769 
   5   2.0000      -0.624006       -16.9801 
   6   2.0000      -0.532766       -14.4973 
   7   2.0000      -0.480241       -13.0680 
   8   2.0000      -0.463858       -12.6222 
   9   2.0000      -0.400575       -10.9002 
  10   2.0000      -0.250931        -6.8282 
  11   2.0000      -0.218807        -5.9541 
  12   0.0000      -0.163482        -4.4486 
  13   0.0000       0.053820         1.4645 
  14   0.0000       0.083783         2.2798 
  15   0.0000       0.103990         2.8297 
  16   0.0000       0.142799         3.8857 
  17   0.0000       0.149018         4.0550 
  18   0.0000       0.182222         4.9585 
  19   0.0000       0.217543         5.9196 
  20   0.0000       0.223050         6.0695 
  21   0.0000       0.241453         6.5703 
  22   0.0000       0.247052         6.7226 
  23   0.0000       0.315719         8.5912 
  24   0.0000       0.357708         9.7337 
  25   0.0000       0.396151        10.7798 
  26   0.0000       0.402986        10.9658 
  27   0.0000       0.425265        11.5720 
  28   0.0000       0.458169        12.4674 
  29   0.0000       0.488903        13.3037 
  30   0.0000       0.512016        13.9327 
  31   0.0000       0.522374        14.2145 
  32   0.0000       0.555940        15.1279 
  33   0.0000       0.627608        17.0781 
  34   0.0000       0.644472        17.5370 
  35   0.0000       0.748085        20.3564 
  36   0.0000       0.789439        21.4817 
  37   0.0000       0.830105        22.5883 
  38   0.0000       0.897338        24.4178 
  39   0.0000       0.914627        24.8883 
  40   0.0000       0.931625        25.3508 
  41   0.0000       0.989768        26.9330 
  42   0.0000       1.098769        29.8990 
  43   0.0000       1.114924        30.3386 
  44   0.0000       1.201263        32.6880 
  45   0.0000       1.324091        36.0304 
  46   0.0000       1.405457        38.2444 
  47   0.0000       1.439000        39.1572 
  48   0.0000       1.497646        40.7530 
  49   0.0000       1.504982        40.9526 
  50   0.0000       1.523952        41.4688 
  51   0.0000       1.575041        42.8590 
  52   0.0000       1.617303        44.0091 
  53   0.0000       1.649785        44.8929 
  54   0.0000       1.732257        47.1371 
  55   0.0000       1.736926        47.2642 
  56   0.0000       1.834916        49.9306 
  57   0.0000       1.896994        51.6198 
  58   0.0000       1.941125        52.8207 
  59   0.0000       1.959864        53.3306 
  60   0.0000       1.989783        54.1448 
  61   0.0000       2.034783        55.3693 
  62   0.0000       2.073110        56.4122 
  63   0.0000       2.261044        61.5261 
  64   0.0000       2.330172        63.4072 
  65   0.0000       2.358219        64.1704 
  66   0.0000       2.388237        64.9872 
  67   0.0000       2.520970        68.5991 
  68   0.0000       2.542978        69.1980 
  69   0.0000       2.583745        70.3073 
  70   0.0000       2.599996        70.7495 
  71   0.0000       2.623238        71.3819 
  72   0.0000       2.653563        72.2071 
  73   0.0000       2.718036        73.9615 
  74   0.0000       2.775413        75.5228 
  75   0.0000       2.828471        76.9666 
  76   0.0000       2.863477        77.9192 
  77   0.0000       2.999791        81.6285 
  78   0.0000       3.014822        82.0375 
  79   0.0000       3.024323        82.2960 
  80   0.0000       3.058742        83.2326 
  81   0.0000       3.095429        84.2309 
  82   0.0000       3.105747        84.5117 
  83   0.0000       3.157439        85.9183 
  84   0.0000       3.183562        86.6291 
  85   0.0000       3.270516        88.9953 
  86   0.0000       3.323478        90.4364 
  87   0.0000       3.368613        91.6646 
  88   0.0000       3.381580        92.0175 
  89   0.0000       3.456115        94.0457 
  90   0.0000       3.477019        94.6145 
  91   0.0000       3.572452        97.2114 
  92   0.0000       3.700391       100.6928 
  93   0.0000       3.796094       103.2970 
  94   0.0000       4.027595       109.5964 
  95   0.0000       4.151614       112.9711 
  96   0.0000       4.168571       113.4326 
  97   0.0000       4.330056       117.8268 
  98   0.0000       4.372668       118.9864 
  99   0.0000       4.526352       123.1683 
 100   0.0000       4.630082       125.9909 
 101   0.0000       4.791864       130.3933 
 102   0.0000       5.194165       141.3404 
 103   0.0000       5.254256       142.9756 
 104   0.0000       5.446034       148.1941 
 105   0.0000       5.492952       149.4708 
 106   0.0000       5.866326       159.6309 
 107   0.0000       5.956663       162.0890 
 108   0.0000       6.090197       165.7227 
 109   0.0000       6.388415       173.8376 
 110   0.0000       6.407332       174.3524 
 111   0.0000       6.831544       185.8958 
 112   0.0000       6.848193       186.3488 
 113   0.0000       6.963369       189.4829 
 114   0.0000      22.218707       604.6018 
 115   0.0000      22.547174       613.5398 
 116   0.0000      43.813613      1192.2290 

                    ********************************
                    * MULLIKEN POPULATION ANALYSIS *
                    ********************************

-----------------------
MULLIKEN ATOMIC CHARGES
-----------------------
   0 O :   -0.396219
   1 C :   -0.150928
   2 C :   -0.165429
   3 H :    0.158358
   4 H :    0.240601
   5 H :    0.159765
   6 H :    0.153852
Sum of atomic charges:   -0.0000000

--------------------------------
MULLIKEN REDUCED ORBITAL CHARGES
--------------------------------
  0 O s       :     3.886714  s :     3.886714
      pz      :     1.464171  p :     4.477781
      px      :     1.661353
      py      :     1.352258
      dz2     :     0.003238  d :     0.030096
      dxz     :     0.001499
      dyz     :     0.008137
      dx2y2   :     0.007164
      dxy     :     0.010059
      f0      :     0.000181  f :     0.001628
      f+1     :     0.000072
      f-1     :     0.000137
      f+2     :     0.000163
      f-2     :     0.000205
      f+3     :     0.000467
      f-3     :     0.000402
  1 C s       :     3.233055  s :     3.233055
      pz      :     1.027633  p :     2.747178
      px      :     0.875169
      py      :     0.844377
      dz2     :     0.012488  d :     0.157427
      dxz     :     0.030679
      dyz     :     0.034251
      dx2y2   :     0.051659
      dxy     :     0.028351
      f0      :     0.001425  f :     0.013267
      f+1     :     0.001521
      f-1     :     0.000267
      f+2     :     0.001082
      f-2     :     0.001572
      f+3     :     0.002154
      f-3     :     0.005247
  2 C s       :     3.299282  s :     3.299282
      pz      :     1.065489  p :     2.827325
      px      :     0.941539
      py      :     0.820297
      dz2     :     0.005451  d :     0.035518
      dxz     :     0.016762
      dyz     :     0.002007
      dx2y2   :     0.004935
      dxy     :     0.006363
      f0      :     0.000402  f :     0.003303
      f+1     :     0.001012
      f-1     :     0.000163
      f+2     :     0.000460
      f-2     :     0.000020
      f+3     :     0.000623
      f-3     :     0.000622
  3 H s       :     0.810354  s :     0.810354
      pz      :     0.010541  p :     0.031288
      px      :     0.010172
      py      :     0.010575
  4 H s       :     0.733180  s :     0.733180
      pz      :     0.010426  p :     0.026219
      px      :     0.008171
      py      :     0.007622
  5 H s       :     0.815440  s :     0.815440
      pz      :     0.011680  p :     0.024795
      px      :     0.006961
      py      :     0.006154
  6 H s       :     0.821055  s :     0.821055
      pz      :     0.011751  p :     0.025093
      px      :     0.007319
      py      :     0.006023


                     *******************************
                     * LOEWDIN POPULATION ANALYSIS *
                     *******************************

----------------------
LOEWDIN ATOMIC CHARGES
----------------------
   0 O :   -0.065722
   1 C :   -0.453696
   2 C :   -0.026599
   3 H :    0.107292
   4 H :    0.243563
   5 H :    0.101849
   6 H :    0.093313

-------------------------------
LOEWDIN REDUCED ORBITAL CHARGES
-------------------------------
  0 O s       :     3.515215  s :     3.515215
      pz      :     1.402040  p :     4.469572
      px      :     1.635154
      py      :     1.432378
      dz2     :     0.007130  d :     0.075763
      dxz     :     0.004486
      dyz     :     0.022958
      dx2y2   :     0.021426
      dxy     :     0.019764
      f0      :     0.000779  f :     0.005172
      f+1     :     0.000218
      f-1     :     0.000443
      f+2     :     0.000450
      f-2     :     0.000792
      f+3     :     0.001203
      f-3     :     0.001287
  1 C s       :     2.823940  s :     2.823940
      pz      :     1.019329  p :     2.963011
      px      :     0.993789
      py      :     0.949892
      dz2     :     0.072883  d :     0.582736
      dxz     :     0.098183
      dyz     :     0.089279
      dx2y2   :     0.189196
      dxy     :     0.133194
      f0      :     0.009240  f :     0.084010
      f+1     :     0.008283
      f-1     :     0.005373
      f+2     :     0.005886
      f-2     :     0.010980
      f+3     :     0.015984
      f-3     :     0.028264
  2 C s       :     2.924909  s :     2.924909
      pz      :     1.099499  p :     2.912347
      px      :     1.047105
      py      :     0.765743
      dz2     :     0.029440  d :     0.172250
      dxz     :     0.081853
      dyz     :     0.005405
      dx2y2   :     0.031583
      dxy     :     0.023969
      f0      :     0.002438  f :     0.017093
      f+1     :     0.003774
      f-1     :     0.000803
      f+2     :     0.002833
      f-2     :     0.000890
      f+3     :     0.003473
      f-3     :     0.002882
  3 H s       :     0.795360  s :     0.795360
      pz      :     0.034554  p :     0.097348
      px      :     0.028870
      py      :     0.033924
  4 H s       :     0.692938  s :     0.692938
      pz      :     0.026781  p :     0.063499
      px      :     0.019351
      py      :     0.017367
  5 H s       :     0.818323  s :     0.818323
      pz      :     0.038241  p :     0.079828
      px      :     0.021730
      py      :     0.019857
  6 H s       :     0.823889  s :     0.823889
      pz      :     0.039482  p :     0.082799
      px      :     0.023915
      py      :     0.019402


                      *****************************
                      * MAYER POPULATION ANALYSIS *
                      *****************************

  NA   - Mulliken gross atomic population
  ZA   - Total nuclear charge
  QA   - Mulliken gross atomic charge
  VA   - Mayer's total valence
  BVA  - Mayer's bonded valence
  FA   - Mayer's free valence

  ATOM       NA         ZA         QA         VA         BVA        FA
  0 O      8.3962     8.0000    -0.3962     1.7763     1.7763     0.0000
  1 C      6.1509     6.0000    -0.1509     4.0749     4.0749    -0.0000
  2 C      6.1654     6.0000    -0.1654     3.6716     3.6716    -0.0000
  3 H      0.8416     1.0000     0.1584     0.9783     0.9783    -0.0000
  4 H      0.7594     1.0000     0.2406     0.9521     0.9521    -0.0000
  5 H      0.8402     1.0000     0.1598     0.9681     0.9681    -0.0000
  6 H      0.8461     1.0000     0.1539     0.9710     0.9710    -0.0000

  Mayer bond orders larger than 0.100000
B(  0-O ,  1-C ) :   1.1502 B(  0-O ,  2-C ) :   0.5637 B(  1-C ,  2-C ) :   1.1173 
B(  1-C ,  3-H ) :   1.0076 B(  1-C ,  4-H ) :   0.7896 B(  2-C ,  5-H ) :   0.9505 
B(  2-C ,  6-H ) :   0.9596 

-------
TIMINGS
-------

Total SCF time: 0 days 0 hours 0 min 4 sec 

Total time                  ....       4.544 sec
Sum of individual times     ....       4.234 sec  ( 93.2%)

Fock matrix formation       ....       3.918 sec  ( 86.2%)
  Split-RI-J                ....       0.388 sec  (  9.9% of F)
  Chain of spheres X        ....       2.661 sec  ( 67.9% of F)
  XC integration            ....       0.820 sec  ( 20.9% of F)
    Basis function eval.    ....       0.224 sec  ( 27.3% of XC)
    Density eval.           ....       0.168 sec  ( 20.5% of XC)
    XC-Functional eval.     ....       0.049 sec  (  6.0% of XC)
    XC-Potential eval.      ....       0.284 sec  ( 34.7% of XC)
Diagonalization             ....       0.037 sec  (  0.8%)
Density matrix formation    ....       0.003 sec  (  0.1%)
Population analysis         ....       0.003 sec  (  0.1%)
Initial guess               ....       0.016 sec  (  0.4%)
Orbital Transformation      ....       0.000 sec  (  0.0%)
Orbital Orthonormalization  ....       0.000 sec  (  0.0%)
DIIS solution               ....       0.034 sec  (  0.7%)
SOSCF solution              ....       0.022 sec  (  0.5%)
Grid generation             ....       0.202 sec  (  4.5%)

Maximum memory used throughout the entire SCF-calculation: 61.0 MB


-------------------------------------------------------------------------------
                          DFT DISPERSION CORRECTION                            
                                                                               
                              DFTD3 V3.1  Rev 1                                
                          USING Becke-Johnson damping                          
-------------------------------------------------------------------------------
The PBE0 functional is recognized
Active option DFTDOPT                   ...         4   

molecular C6(AA) [au] = 394.617070 


            DFT-D V3
 parameters
 s6 scaling factor         :     1.0000 
 a1 scaling factor         :     0.4145 
 s8 scaling factor         :     1.2177 
 a2 scaling factor         :     4.8593 
 ad hoc parameters k1-k3   :    16.0000     1.3333    -4.0000 

 Edisp/kcal,au: -1.613122568417  -0.002570674170 
 E6   /kcal   :  -1.051931889 
 E8   /kcal   :  -0.561190680 
 % E8         :  34.789091099 

-------------------------   ----------------
Dispersion correction           -0.002570674
-------------------------   ----------------


-------------------------   --------------------
FINAL SINGLE POINT ENERGY      -153.442577354240
-------------------------   --------------------



           ************************************************************
           *        Program running with 8 parallel MPI-processes     *
           *              working on a common directory               *
           ************************************************************
------------------------------------------------------------------------------
                         ORCA SCF GRADIENT CALCULATION
------------------------------------------------------------------------------

 ... reading COSX grid (gridx3)
Gradient of the Kohn-Sham DFT energy:
Kohn-Sham wavefunction type      ... RKS
Hartree-Fock exchange scaling    ...    0.250
Number of operators              ...    1
Number of atoms                  ...    7
Basis set dimensions             ...  117
Integral neglect threshold       ... 2.5e-11
Integral primitive cutoff        ... 2.5e-12
SHARK Integral package           ... ON

Nuc. rep. gradient       (SHARK) ... done (  0.0 sec)
HCore & Overlap gradient (SHARK) ... done (  0.0 sec)
RI-J gradient            (SHARK) ... done (  0.1 sec)
COSX-gradient                    ... done (  0.3 sec)
Exchange-correlation gradient    ... done
Dispersion correction            ... done

------------------
CARTESIAN GRADIENT
------------------

   1   O   :    0.015952282   -0.086669229    0.055814531
   2   C   :   -0.063625768   -0.028835743    0.014547234
   3   C   :    0.116198146   -0.009396942    0.030547188
   4   H   :    0.010721036    0.089580194   -0.079884890
   5   H   :   -0.020604497    0.016666126   -0.004592545
   6   H   :   -0.025163255   -0.004387710    0.045629104
   7   H   :   -0.033447848    0.023043284   -0.062023305

Difference to translation invariance:
           :    0.0000300970   -0.0000000198    0.0000373181

Difference to rotation invariance:
           :    0.0001367780    0.0002091255    0.0002538382

Norm of the cartesian gradient     ...    0.2323181814
RMS gradient                       ...    0.0506959834
MAX gradient                       ...    0.1161981458

-------
TIMINGS
-------

Total SCF gradient time            ...        0.668 sec

One electron gradient       ....       0.009 sec  (  1.4%)
RI-J Coulomb gradient       ....       0.072 sec  ( 10.8%)
COSX gradient               ....       0.303 sec  ( 45.4%)
XC gradient                 ....       0.148 sec  ( 22.1%)

Maximum memory used throughout the entire SCFGRAD-calculation: 35.8 MB

                            ***************************************
                            *     ORCA property calculations      *
                            ***************************************

                                    ---------------------
                                    Active property flags
                                    ---------------------
   (+) Dipole Moment


------------------------------------------------------------------------------
                       ORCA ELECTRIC PROPERTIES CALCULATION
------------------------------------------------------------------------------

Dipole Moment Calculation                       ... on
Quadrupole Moment Calculation                   ... off
Polarizability Calculation                      ... off
GBWName                                         ... ox_gs_G_orca0001.gbw
Electron density                                ... ox_gs_G_orca0001.scfp
The origin for moment calculation is the CENTER OF MASS  = (-1.040020, -0.093468  0.023373)

-------------
DIPOLE MOMENT
-------------
                                X             Y             Z
Electronic contribution:     -0.99725       1.28808       0.10125
Nuclear contribution   :      1.88438      -2.21190      -0.19894
                        -----------------------------------------
Total Dipole Moment    :      0.88713      -0.92383      -0.09769
                        -----------------------------------------
Magnitude (a.u.)       :      1.28452
Magnitude (Debye)      :      3.26500



--------------------
Rotational spectrum 
--------------------
 
Rotational constants in cm-1:     1.952949     0.296958     0.284750 
Rotational constants in MHz : 58547.937419  8902.588707  8536.602851 

 Dipole components along the rotational axes: 
x,y,z [a.u.] :     1.201078    -0.452683     0.049878 
x,y,z [Debye]:     3.052897    -1.150629     0.126781 

 

Timings for individual modules:

Sum of individual times         ...        5.875 sec (=   0.098 min)
GTO integral calculation        ...        0.289 sec (=   0.005 min)   4.9 %
SCF iterations                  ...        4.712 sec (=   0.079 min)  80.2 %
SCF Gradient evaluation         ...        0.874 sec (=   0.015 min)  14.9 %
                             ****ORCA TERMINATED NORMALLY****
TOTAL RUN TIME: 0 days 0 hours 0 minutes 6 seconds 127 msec
