7
Properties=species:S:1:pos:R:3:forces:R:3 C2H4O=T energy=-4173.186889592772 dipole="0.06824269307431295 0.26527124388354795 -0.036714314868919296" pbc="F F F"
O        0.00392601       0.77232343       0.03238454      -1.38896914       1.94209091      -0.31881968
C       -0.65273810      -0.45872816      -0.01170685      -1.35289289      -1.11970213      -1.44339790
C        0.80785018      -0.40864875      -0.02347372       0.45420626      -1.96701129       3.65559367
H       -1.23669493      -0.69144169       0.89668973      -0.12481983       0.24075475       0.62632132
H       -1.25172466      -0.76393492      -1.00622211       0.93980143       0.93139541       0.90246313
H        1.23570844      -0.71891242      -0.90426385       1.37044332      -0.47318231      -2.83515266
H        1.21842167      -0.73888600       0.99325861       0.10374338       0.44781324      -0.58527033
7
Properties=species:S:1:pos:R:3:forces:R:3 C2H4O=T energy=-4173.727349743582 dipole="-0.3168025206482548 -0.01585414922849268 -0.005222979068265112" pbc="F F F"
O       -0.03219852       0.78261306      -0.07123730      -3.31679515       4.55787848      -0.12034882
C       -0.75610873      -0.44147436      -0.05754968      -0.67996033      -0.08179041       0.92759179
C        0.74767444      -0.47705242      -0.01458469       4.59952718      -6.13800400      -1.28542670
H       -1.29390826      -0.57565690       0.91930136       0.00854638       0.33829543      -1.06677058
H       -1.31670832      -0.62714366      -0.98101840      -0.19438841       0.26187115       0.27481185
H        1.27426600      -0.76625437      -0.98638552      -0.49748321       0.67383626       1.69278024
H        1.27366593      -0.63134748       0.92854458       0.08302218       0.38660926      -0.42237890
7
Properties=species:S:1:pos:R:3:forces:R:3 C2H4O=T energy=-4173.700972688585 dipole="-0.38001803022221126 -0.00556165248302597 0.0334228326192122" pbc="F F F"
O       -0.02669212       0.76418146      -0.07392599      -4.17563954       5.46073498      -0.00193990
C       -0.76488180      -0.47005243       0.05285611       2.45807129       0.29324685      -2.24165532
C        0.74607045      -0.53517250       0.01620420      -0.76339117      -5.90482087      -0.90044269
H       -1.28307704      -0.70211691       0.95056003      -0.70735979       0.35898269       0.60504763
H       -1.21227279      -0.62170690      -0.96193710      -0.28025803       0.06383750       1.09917571
H        1.24836220      -0.65170769      -0.87119896       1.34245360       0.09402577      -2.13300146
H        1.23986416      -0.67755376       0.86465942       2.12574487      -0.36880721       3.57039628
7
Properties=species:S:1:pos:R:3:forces:R:3 C2H4O=T energy=-4173.0450105178425 dipole="-0.39709457880710636 0.1672887915755471 0.08855251441575317" pbc="F F F"
O       -0.08072003       0.81986294       0.06781211      -3.69640092       7.08233632       0.83334498
C       -0.73249010      -0.39684385       0.01808180       2.98274958      -0.17334939      -5.55222787
C        0.69663355      -0.42895071       0.07690183       4.19695167      -6.05641037      -5.14641175
H       -1.26561423      -0.59003863       0.78898896      -4.02856584      -0.93978649       5.33313888
H       -1.22272764      -0.66391856      -0.93492659       0.12475047       0.20919595       0.10768251
H        1.26841086      -0.76764931      -0.93095981      -1.09305825       0.04454750       2.00051095
H        1.28167850      -0.59437611       0.89406266       1.51332115      -0.16383415       2.42638554
7
Properties=species:S:1:pos:R:3:forces:R:3 C2H4O=T energy=-4173.184562271579 dipole="-0.24053220928968835 0.3553530804378306 0.09378607702822957" pbc="F F F"
O       -0.06133438       0.75414879       0.04577022      -1.16723078       3.06225209       0.10391093
C       -0.71245203      -0.47350850       0.02566337       0.65913899      -0.34824199      -2.80524609
C        0.73374342      -0.39858824      -0.03510265       1.81430201      -2.70558924       1.19432888
H       -1.28020604      -0.68787622       0.84680047      -1.46929764      -0.49481908       2.92909192
H       -1.24901676      -0.65521815      -0.91972055      -0.03406171       0.15783051      -0.57854688
H        1.25209346      -0.73903940      -0.94100849       0.04335431       0.02064224      -1.10969900
H        1.24668714      -0.70838467       0.91191188       0.15603857       0.31014396       0.26740373
7
Properties=species:S:1:pos:R:3:forces:R:3 C2H4O=T energy=-4173.602798571976 dipole="0.177359033892577 -0.03145958516802036 0.04339253126623498" pbc="F F F"
O       -0.00070716       0.87354594       0.00872900       2.55164108       6.13778563       0.25079857
C       -0.71601207      -0.45074279      -0.09593856      -0.79779351      -5.41437699       6.21176208
C        0.72756385      -0.44400898       0.12316211      -1.24724253      -1.67926251      -4.99883016
H       -1.27344098      -0.65319344       0.91824063       0.65648842       0.77710491      -1.92741059
H       -1.32225667      -0.61112977      -0.88237957      -1.44966916      -0.51855997      -3.06783945
H        1.30337442      -0.71374023      -0.84983650      -0.38930630       1.00018941       1.86991746
H        1.19373032      -0.63892796       1.02949895       0.67678437      -0.30152623       1.66060632
7
Properties=species:S:1:pos:R:3:forces:R:3 C2H4O=T energy=-4173.426759090284 dipole="0.36325898796365436 0.06125226212276461 0.00559869488776544" pbc="F F F"
O       -0.07043652       0.75092176       0.00498268       4.16703107       7.65842634      -0.01211686
C       -0.75406337      -0.52455366       0.00342815      -1.98605389      -6.98712069      -1.48196713
C        0.67577435      -0.42334087      -0.04597121       1.38263737      -1.43963113      -0.18495453
H       -1.18632621      -0.70743347       0.90387314      -1.76297871      -0.27614203       2.32734409
H       -1.22314691      -0.72981413      -0.90860322      -1.13637677      -0.20357893      -1.00229582
H        1.32917996      -0.74864502      -0.91074453      -0.62981998       0.80761899       0.37830798
H        1.27681701      -0.62917967       0.85812863      -0.03794174       0.44422392      -0.02279670
7
Properties=species:S:1:pos:R:3:forces:R:3 C2H4O=T energy=-4173.453031886569 dipole="-0.38456895423306026 -0.022564116258442186 0.02414635611802807" pbc="F F F"
O       -0.08693253       0.80533372       0.01484934      -4.27608480       7.52013346       0.38425886
C       -0.71636495      -0.42969808      -0.03400124       2.94111657      -0.35737547      -0.21309080
C        0.74050222      -0.43236687      -0.03571757       4.71778041      -7.19427723       3.10186925
H       -1.17053420      -0.64457916       0.86041105      -1.53830913      -0.37170230       2.17572464
H       -1.23099509      -0.71700499      -0.88062199      -1.38353654      -0.06092461      -2.00357030
H        1.32175260      -0.70930498      -0.87180741       0.63803544      -0.38597754      -0.89995874
H        1.28446192      -0.62716780       1.01481582      -1.09883996       0.85305459      -2.54430776
7
Properties=species:S:1:pos:R:3:forces:R:3 C2H4O=T energy=-4173.335463894454 dipole="0.35939070255443273 0.17136874786899434 -0.002122000614361003" pbc="F F F"
O       -0.03317911       0.74154984      -0.04447561      -0.08473486       1.89005739      -0.27233852
C       -0.76968010      -0.45087558       0.01705760       0.94895594      -1.82458315       0.46341641
C        0.74272408      -0.40566133       0.00065009      -1.32653547      -1.87256882      -0.19557593
H       -1.19114623      -0.68150365       1.05598468       0.29562337       0.51897591       0.28213947
H       -1.23253940      -0.71112879      -0.97352084      -0.22533676       0.51048826      -0.63304207
H        1.28794644      -0.67944400      -0.88427620       0.27891411       0.51755944      -1.25618096
H        1.28748475      -0.67191226       0.87763648       0.11216565       0.25967466       1.61083755
7
Properties=species:S:1:pos:R:3:forces:R:3 C2H4O=T energy=-4173.521612267628 dipole="-0.4118639147539432 -0.0977707814237753 -0.0832924929427486" pbc="F F F"
O       -0.09665206       0.75691090       0.04282005      -3.16193277       5.56345900       0.94517054
C       -0.71818490      -0.50930743       0.00865905       1.83549966       0.20005144       2.20263010
C        0.74815541      -0.49121336       0.00768626       2.58011048      -7.03438979       3.72757053
H       -1.26091249      -0.72541932       0.93786559      -0.03205053       0.27381055      -0.17647319
H       -1.23578354      -0.61411835      -0.86728612      -1.53560047      -0.39317871      -2.26960353
H        1.19493935      -0.71516211      -0.89422446       1.46811617       0.05442243      -1.57931215
H        1.28951217      -0.64251843       1.11261274      -1.15416670       1.33634232      -2.84937727
7
Properties=species:S:1:pos:R:3:forces:R:3 C2H4O=T energy=-4173.496804784698 dipole="0.2600429730431772 0.03148075225644291 -0.01811902768970592" pbc="F F F"
O        0.00763482       0.83601493       0.04770020       3.27658097       6.97464919       0.43020237
C       -0.69632003      -0.46278395       0.03794846      -2.67165426      -6.49319748      -7.18007892
C        0.69024828      -0.45886142      -0.02426818       2.24875756      -1.12330001      -1.44962972
H       -1.25972922      -0.55253788       0.82661296      -2.94846685      -0.33915757       4.55098906
H       -1.22950976      -0.74890670      -0.94357281       0.52887969       0.47523522       1.60041034
H        1.31827035      -0.66505686      -0.97386346      -1.22441543       0.29929161       1.47631510
H        1.22805768      -0.63429092       0.88345784       0.79276930       0.20879771       0.57448099
7
Properties=species:S:1:pos:R:3:forces:R:3 C2H4O=T energy=-4173.055026195527 dipole="-0.3910831256951012 0.10005153520130544 -0.02321500422743571" pbc="F F F"
O       -0.01008677       0.78151524      -0.03257991      -4.74524577       8.24055010      -0.71721369
C       -0.62169239      -0.41532454      -0.10125713      -3.89957299      -1.11540567       3.77304503
C        0.73821226      -0.48010981       0.04262167       6.72428094      -7.75718692       2.19560049
H       -1.30344897      -0.67400763       0.94522558       1.25833105       0.84780878      -2.45904772
H       -1.22053501      -0.72828573      -0.93670128      -0.49744475       0.09723907      -0.66239781
H        1.24007555      -0.70093732      -0.83170351       1.66205750      -0.29706875      -1.68610439
H        1.28407196      -0.73131501       0.96586927      -0.50197836      -0.01153933      -0.44283344
7
Properties=species:S:1:pos:R:3:forces:R:3 C2H4O=T energy=-4173.359569717046 dipole="0.4489063194934121 -0.03667727246417983 -0.04960507171825447" pbc="F F F"
O        0.08519811       0.83085991      -0.07596839       4.67557703       6.19164084      -0.69576477
C       -0.75310129      -0.38367493      -0.03538347      -2.38714799      -5.45503049       3.97603303
C        0.75108051      -0.40828879      -0.04634652      -2.32257864      -0.98474269       4.97771206
H       -1.26679920      -0.83033418       0.86875684       0.47359152       0.07698386      -0.33584771
H       -1.27645118      -0.73066007      -0.83835565      -1.40007875      -0.57308767      -2.83446224
H        1.19231575      -0.69027308      -0.91343919       2.14308966      -0.42091888      -2.65851218
H        1.33588653      -0.74006392       0.97813436      -1.18588880       1.16893026      -2.42847473
7
Properties=species:S:1:pos:R:3:forces:R:3 C2H4O=T energy=-4173.372173218194 dipole="0.08321840813326967 0.16643681626653933 -0.07052873862394875" pbc="F F F"
O       -0.02039805       0.73016121       0.02310528      -0.49444046       2.35372204      -0.13692365
C       -0.71893661      -0.47703133       0.00349010      -2.21257831      -1.82734688       1.06392718
C        0.70962386      -0.44134462       0.03310653       2.40082303      -2.74061616      -1.45996870
H       -1.18452209      -0.73016158       1.02662789       0.35480447       0.62631872      -0.15765431
H       -1.36142716      -0.67586016      -0.89056036       0.58916131       0.46167963      -0.34807406
H        1.27787241      -0.69940584      -0.93038233      -0.45899910       0.85234134       0.32215505
H        1.23917282      -0.69773905       0.96245627      -0.17931947       0.27459770       0.71708534
7
Properties=species:S:1:pos:R:3:forces:R:3 C2H4O=T energy=-4173.260239418685 dipole="-0.3391337989340489 0.026601738375044294 -0.126415143831596" pbc="F F F"
O       -0.00305893       0.74459117       0.04498010       0.48455116       3.20665660       0.05419690
C       -0.71352461      -0.40637738       0.03148144      -2.53385352      -2.93671087      -0.52594315
C        0.68743979      -0.47502954       0.03736468       3.12574160      -2.29745541       0.84005553
H       -1.23330442      -0.66931589       0.92584259      -0.59234736       0.44595965       1.41893487
H       -1.19993953      -0.69784948      -0.89262135      -0.18401436       0.58675879      -0.83973613
H        1.25371319      -0.67915492      -0.86503738       0.18257800       0.37259241      -1.27307879
H        1.30509369      -0.62759533       0.98525011      -0.48074194       0.62418153       0.32550274
7
Properties=species:S:1:pos:R:3:forces:R:3 C2H4O=T energy=-4173.357461608004 dipole="-0.3837328542403694 -0.021167088422553645 -0.026278940276600354" pbc="F F F"
O       -0.01985951       0.81333429      -0.01551323      -4.73315634       6.20599386      -0.46390887
C       -0.71268127      -0.45352764       0.00484980       1.47070175      -0.03951635       3.73571681
C        0.75864739      -0.48793152       0.10461936      -0.08764876      -6.96564652      -8.35589465
H       -1.31412380      -0.72898024       0.97788176       0.87678589       1.13117746      -1.84870281
H       -1.22423964      -0.63706492      -0.88855894      -0.81075282      -0.23068744      -1.36602580
H        1.26321048      -0.71313358      -0.91618599      -0.39602619       0.81876891       2.07010577
H        1.22996478      -0.61951482       0.91262330       3.68373016      -0.91883997       6.22782582
7
Properties=species:S:1:pos:R:3:forces:R:3 C2H4O=T energy=-4173.579200033347 dipole="-0.3287883844675258 -0.07252373670777443 0.014584123923139463" pbc="F F F"
O       -0.06218456       0.76316735       0.02064668      -3.11500361       4.01889736       0.04661967
C       -0.75707582      -0.48813151       0.01218436       0.90654039       0.47948973      -3.08071368
C        0.74113787      -0.47236765      -0.02355192       4.54878502      -5.74447819       0.44295994
H       -1.25222043      -0.74067503       0.84960303      -1.80746350      -0.40687789       3.07418775
H       -1.29974498      -0.67894327      -0.90443084      -0.29329111       0.43059049      -0.16111472
H        1.33759063      -0.62538788      -0.92797315      -0.15205908       0.64490478       0.26764297
H        1.26287206      -0.71839728       0.91905051      -0.08514462       0.57696853      -0.59000573
7
Properties=species:S:1:pos:R:3:forces:R:3 C2H4O=T energy=-4173.248928928205 dipole="-0.1244307292919816 0.169368458013063 -0.02463849092385244" pbc="F F F"
O       -0.03534263       0.79537257      -0.04136144      -2.98561498       6.57580870      -0.51581567
C       -0.70292226      -0.37038354      -0.00543801      -1.53978745      -2.30350758      -0.02153435
C        0.74897513      -0.41251329      -0.02006102       2.71967077      -4.97400988       3.20980599
H       -1.25261831      -0.66764119       0.92486002       0.02870012       0.45000605      -0.19616662
H       -1.30247326      -0.66704540      -0.89507631      -0.18359205       0.60646703       0.14362469
H        1.33638000      -0.62030732      -0.81231710       1.79732218      -0.31527737      -2.79954622
H        1.22545549      -0.62465478       0.92914327       0.16488374      -0.03763542       0.17765504
7
Properties=species:S:1:pos:R:3:forces:R:3 C2H4O=T energy=-4174.195006013836 dipole="0.4246170855285318 0.007313229049992285 0.013197679631462199" pbc="F F F"
O        0.08858044       0.73882173      -0.04198598       4.00950152      10.29166187      -0.34328050
C       -0.75885922      -0.55321528      -0.02628775      -2.80399028      -8.06610135      -3.24277670
C        0.69093291      -0.43950080       0.01708780      -0.62335702      -2.03004531      -3.76634678
H       -1.17001439      -0.62074962       0.89113104      -1.91302678      -0.10626604       2.60063487
H       -1.30874350      -0.64367495      -0.98598788       0.44661041       0.31198187       1.07456508
H        1.35539576      -0.60929885      -0.94343500      -0.78589899       0.16101541       1.77790678
H        1.17816614      -0.60057719       0.91424918       1.67122081      -0.56271570       1.89751919
7
Properties=species:S:1:pos:R:3:forces:R:3 C2H4O=T energy=-4173.2147981815 dipole="-0.14564544366348597 -0.09503493524516023 -0.008144037270577515" pbc="F F F"
O        0.04098111       0.69951526      -0.02996864      -0.85975224       3.70673999      -0.39364869
C       -0.72862741      -0.44467146      -0.02250327      -4.79326632      -2.42710389       2.10127147
C        0.76003204      -0.50040151      -0.00711897       2.47670696      -2.63389995       2.43125970
H       -1.25780815      -0.64254887       0.95555696       0.29720123       0.73202398      -1.08755388
H       -1.32005487      -0.74497662      -0.85609238      -0.50046076       0.64370311      -0.80008230
H        1.28043852      -0.70569519      -0.84241862       2.33549379      -0.24584495      -3.02849535
H        1.26960660      -0.60930595       0.92335209       1.04360429       0.22597415       0.77694786
7
Properties=species:S:1:pos:R:3:forces:R:3 C2H4O=T energy=-4173.647128081862 dipole="0.29542905311358125 -0.07606393224644653 -0.0005979702479371405" pbc="F F F"
O        0.08212769       0.86700369      -0.01244810       4.50354988       7.47478854      -0.78556244
C       -0.68031104      -0.41475169       0.06843158      -7.71198542      -7.27525617      -1.67037114
C        0.68064337      -0.41271792       0.05292122       2.44544591      -0.79693833      -2.87946981
H       -1.35175990      -0.72743374       0.81801461      -0.31579031      -0.62059860       1.70609334
H       -1.27729311      -0.63239380      -0.84485837       0.68830657       0.81949696       0.16582578
H        1.26752756      -0.58684008      -0.98898129      -0.93473541       0.41679624       2.32937540
H        1.17865375      -0.67104819       0.93917944       1.32902500      -0.01673697       1.13455174
7
Properties=species:S:1:pos:R:3:forces:R:3 C2H4O=T energy=-4173.032716266287 dipole="-0.39568696742700654 0.0391802806701468 -0.05209220460790452" pbc="F F F"
O       -0.02254444       0.67586454      -0.00445589       0.22057730       5.25852090      -0.17602250
C       -0.79411307      -0.41353686       0.01832991      -0.55279865      -2.53804112      -4.13748368
C        0.68189555      -0.47271384      -0.05296068       1.52865447      -3.43455540       0.75628438
H       -1.26695688      -0.62051369       0.87068992      -2.01396434      -0.45075990       3.77740884
H       -1.23862044      -0.69478379      -0.95961986       0.06988561       0.50187375      -0.01540802
H        1.25847130      -0.72003298      -0.94765869       0.02018541       0.36655785      -1.03076118
H        1.20392898      -0.57003455       0.92173935       0.72655161       0.29593009       0.82763447
7
Properties=species:S:1:pos:R:3:forces:R:3 C2H4O=T energy=-4173.437832251191 dipole="-0.3024300676093408 0.06005632162689033 0.0035560708549890125" pbc="F F F"
O       -0.05589598       0.78993564      -0.00561629      -3.78915708       6.72539367      -0.21643247
C       -0.73993807      -0.41631215       0.03787539      -0.57909424      -1.71532136       2.11274503
C        0.70236448      -0.47581140      -0.01375258       2.49665696      -6.44929675       1.60852195
H       -1.37891899      -0.74403036       0.98831993       1.11439702       1.03385145      -1.78858734
H       -1.18157438      -0.68072271      -0.89114837      -1.22055392       0.27281738      -0.79832331
H        1.27938533      -0.51432682      -0.86399747       1.20271006       0.35980706      -2.28167169
H        1.25742699      -0.71604783       0.83965385       0.77610172      -0.22482263       1.36243232
7
Properties=species:S:1:pos:R:3:forces:R:3 C2H4O=T energy=-4173.575654983147 dipole="0.35017772731851626 -0.07525429111428385 0.027908806085136982" pbc="F F F"
O       -0.01073652       0.74141911      -0.07111257       3.12203142       4.29236492      -0.28873069
C       -0.76121823      -0.50109789       0.08435708      -2.67674899      -5.41411664      -1.63471645
C        0.77297153      -0.44741912       0.07399721      -0.29110108      -1.19245177      -0.20427822
H       -1.25995451      -0.71133502       0.99613242      -0.59015509       0.12254485       0.50313675
H       -1.23687727      -0.72013322      -0.92949315      -0.01088960       0.83418537       1.55673246
H        1.22004191      -0.73741085      -0.87366734       0.41557831       0.33206052      -0.01337259
H        1.35929370      -0.73819919       0.94812463       0.03045321       1.02327336       0.07888627
7
Properties=species:S:1:pos:R:3:forces:R:3 C2H4O=T energy=-4173.31467453009 dipole="-0.12364754702034712 -0.08319194927274146 -0.004741427806652016" pbc="F F F"
O       -0.05344183       0.75488038      -0.02961959      -1.71281258       3.51841462      -0.11107363
C       -0.77208913      -0.44459441      -0.04154751      -1.95369509      -1.55067772       3.74503209
C        0.74241238      -0.44953240      -0.01194740       3.67631028      -3.54559269      -1.35851022
H       -1.30920111      -0.69710938       0.95774578       0.45254433       0.97880967      -1.84202079
H       -1.23877691      -0.71714867      -0.91500960      -1.57073253      -0.03793892      -2.02183626
H        1.30139218      -0.75174112      -0.89280821      -0.01957180       0.54037873      -0.04200790
H        1.23069168      -0.63974088       0.88181321       1.12989787       0.09805471       1.63069807
7
Properties=species:S:1:pos:R:3:forces:R:3 C2H4O=T energy=-4172.711100316821 dipole="-0.45984970420787236 0.29968892965862015 -0.05572236027237248" pbc="F F F"
O       -0.11115381       0.69785952       0.00240436       0.89016130       4.47454322       0.16984260
C       -0.71590346      -0.49223632       0.03192962      -4.71266004      -2.36212747      -3.03442502
C        0.64581354      -0.45032448      -0.06055081       5.83062422      -2.74706194       1.82579365
H       -1.29641474      -0.66590088       0.87695555      -0.92926348      -0.51577300       2.15289132
H       -1.28305055      -0.61795627      -0.94882081       0.24002446      -0.03676643       0.50056932
H        1.30560743      -0.72475620      -0.89348601      -0.27747859       0.27399065      -1.25109480
H        1.33590130      -0.79185304       0.88013141      -1.04293595       0.91407646      -0.36401751
7
Properties=species:S:1:pos:R:3:forces:R:3 C2H4O=T energy=-4173.497769508796 dipole="0.08890706314683094 -0.08811329733098519 0.0033285246544465606" pbc="F F F"
O        0.00794390       0.76908438       0.01855740       1.03008590       2.34647472       0.14026897
C       -0.75908885      -0.44269100      -0.00778386      -2.71661035      -2.56800944       0.83755838
C        0.78727864      -0.43429945       0.01688013       0.96212438      -1.07985165      -4.46969362
H       -1.28441678      -0.69265112       0.89834831      -0.29406143       0.53661574       0.21903624
H       -1.24410016      -0.68932013      -0.90548748      -0.73719178       0.18878611      -1.07352588
H        1.36759286      -0.62471462      -0.93627740      -0.45732256       0.85087597       0.88238933
H        1.32388357      -0.68867458       0.81806994       2.21019885      -0.27578801       3.46332285
7
Properties=species:S:1:pos:R:3:forces:R:3 C2H4O=T energy=-4172.125282709825 dipole="-0.20799310261211776 0.16429364856375578 -0.15367835371984512" pbc="F F F"
O       -0.07131402       0.68569705      -0.01757556       2.24743417       9.70107620       0.69518121
C       -0.72796867      -0.36319862       0.01634637      -2.04136953      -6.63022653      -3.30671384
C        0.71793451      -0.40555021      -0.11055677       0.82022745      -3.41524024       4.57623227
H       -1.25204220      -0.62972755       0.84604691      -1.72020316      -0.50597447       3.19312106
H       -1.20663507      -0.65134609      -0.94074062      -0.43184625       0.34899423      -0.76762535
H        1.29546191      -0.55473622      -0.91088291       1.60516873      -0.55062251      -4.22665053
H        1.27623390      -0.69123885       0.87748395      -0.47621083       1.05172202      -0.16555500
7
Properties=species:S:1:pos:R:3:forces:R:3 C2H4O=T energy=-4173.140420807961 dipole="-0.02479195231491596 -0.09942181432073446 0.008022326512147833" pbc="F F F"
O        0.02060709       0.73643245       0.00357842      -0.49870331       2.86409449      -0.01296117
C       -0.75277246      -0.42307150       0.01668311      -3.32908345      -2.26139729       1.34710683
C        0.78076654      -0.47252131      -0.01349375       0.06002614      -1.18670708      -0.15273555
H       -1.31276112      -0.69048547       0.93884124       0.30145947       0.90773677      -0.55655360
H       -1.22597334      -0.71437918      -0.87649592      -0.98302280       0.34994434      -1.07438107
H        1.33160471      -0.64759911      -0.82613643       2.22172020      -0.03186756      -3.44299467
H        1.22513341      -0.73050355       0.83104016       2.22500571      -0.63941043       3.89262364
7
Properties=species:S:1:pos:R:3:forces:R:3 C2H4O=T energy=-4173.676407740004 dipole="0.3854526801747019 -0.033189994646564115 -0.006858136648907381" pbc="F F F"
O        0.05389251       0.81195493      -0.00277912       5.02718488       6.81644833      -0.71824553
C       -0.71489116      -0.50329494       0.12228760       0.26092563      -6.49554414      -7.66504151
C        0.73535060      -0.44155075       0.03628833      -0.35275579      -0.63348225      -1.15698965
H       -1.23977247      -0.65707661       0.88045250      -4.13727030      -1.26175287       6.80798930
H       -1.24024935      -0.57416969      -0.85270522       0.07531108       0.37921982       0.69748469
H        1.34348215      -0.69383164      -0.96945646      -1.32910963       0.71674778       2.33609413
H        1.25753352      -0.66548456       0.97468575       0.45472893       0.48012835      -0.30348607
7
Properties=species:S:1:pos:R:3:forces:R:3 C2H4O=T energy=-4173.692590644585 dipole="-0.38268508336345297 -0.10622703324858547 0.025342296613902353" pbc="F F F"
O       -0.10553293       0.85571416      -0.00790028      -5.41598126       4.71593883       0.27818758
C       -0.75023364      -0.49762571      -0.08274283       3.18957433       1.43482786       5.22173664
C        0.77004807      -0.44335459      -0.06449804       1.84070612      -6.45888487       3.47506034
H       -1.32857687      -0.68506004       1.00342730       1.35574725       0.63726118      -3.09329195
H       -1.27680234      -0.74342806      -0.93226337      -1.35472562      -0.14286584      -1.94798548
H        1.25018664      -0.80311519      -0.92269096       1.16956186      -0.77028536      -1.09632636
H        1.25227614      -0.63346049       1.01242397      -0.78392068       0.58618492      -2.83702500
7
Properties=species:S:1:pos:R:3:forces:R:3 C2H4O=T energy=-4172.802181126223 dipole="-0.004513881606109564 -0.024072271308549137 0.5047292234357916" pbc="F F F"
O        0.03541855       0.76579221      -0.05532618      -1.10641459       3.52819626      -0.50080529
C       -0.60022160      -0.44405957       0.00069646      -8.18129476      -3.16049802       1.29680599
C        0.72768329      -0.43711625      -0.00721802       5.83670797      -2.89048887      -2.49973326
H       -1.29250603      -0.69561376       0.91833856       1.54167085       1.07612189      -0.94522405
H       -1.29099401      -0.70391320      -0.91465471       1.12074766       0.98603638       0.01244696
H        1.25107396      -0.59307121      -1.05252471      -0.52082573       0.58150126       0.29187263
H        1.31839821      -0.60596655       0.81630666       1.30923608      -0.11788430       2.34041808
7
Properties=species:S:1:pos:R:3:forces:R:3 C2H4O=T energy=-4173.442372489752 dipole="0.322009624400203 -0.04367299518783381 0.06348538995134402" pbc="F F F"
O       -0.03804408       0.76066460      -0.07037547       1.09498633       3.91291078      -0.20209378
C       -0.76778042      -0.50254928       0.08761352      -1.82355605      -4.17930831      -3.44856573
C        0.77567346      -0.38344274       0.03608360      -1.97892976      -0.66430428      -3.57762209
H       -1.32027552      -0.69449682       0.94444495      -0.79908177       0.24015648       1.67644136
H       -1.32492916      -0.63262099      -0.93199249       0.36135877       0.88231551       1.59250326
H        1.24508178      -0.63272286      -0.89776305       0.47273750       0.10889790      -0.29731363
H        1.24577456      -0.61030432       0.86592300       2.67105508      -0.30101330       4.25590242
7
Properties=species:S:1:pos:R:3:forces:R:3 C2H4O=T energy=-4173.930689075051 dipole="0.3118705890457998 -0.029443419995772123 0.0012964841658814107" pbc="F F F"
O        0.00988708       0.80889171      -0.01547721       4.04097599       6.93049625      -0.09893859
C       -0.71258294      -0.50957617       0.04620135      -1.78259954      -6.56544377      -0.90458585