7
Properties=species:S:1:pos:R:3:forces:R:3 C2H4O=T energy=-4181.299889969695 dipole="0.00895897017484583 -0.380753586544895 -0.012356287866665691" pbc="F F F"
O        0.00392601       0.77232343       0.03238454       0.26234501       0.48633542      -0.67750474
C       -0.65273810      -0.45872816      -0.01170685      -2.28811613      -0.97501111      -1.58709455
C        0.80785018      -0.40864875      -0.02347372      -1.51769659      -0.93521783       4.24251029
H       -1.23669493      -0.69144169       0.89668973       0.48164752      -0.02796471      -0.38820924
H       -1.25172466      -0.76393492      -1.00622211       1.45571591       0.98393883       2.09058955
H        1.23570844      -0.71891242      -0.90426385       1.50006890      -0.17638194      -1.94990407
H        1.21842167      -0.73888600       0.99325861       0.10317017       0.65560674      -1.73682250
7
Properties=species:S:1:pos:R:3:forces:R:3 C2H4O=T energy=-4181.591471246065 dipole="5.291772105638412e-05 -0.38079062894963445 0.011721275213989081" pbc="F F F"
O       -0.03219852       0.78261306      -0.07123730       0.76138931      -1.05507242      -0.16401038
C       -0.75610873      -0.44147436      -0.05754968       0.72122290       0.48368264       1.31110535
C        0.74767444      -0.47705242      -0.01458469      -1.33105215       0.53804451      -1.61497488
H       -1.29390826      -0.57565690       0.91930136       0.32325635      -0.15444954      -1.11137826
H       -1.31670832      -0.62714366      -0.98101840       0.25307966      -0.23232932       0.32236220
H        1.27426600      -0.76625437      -0.98638552      -0.59099956       0.53781900       1.51191461
H        1.27366593      -0.63134748       0.92854458      -0.13658184      -0.10924883      -0.24792484
7
Properties=species:S:1:pos:R:3:forces:R:3 C2H4O=T energy=-4181.19378095134 dipole="0.01591765049376034 -0.4083343027594824 0.045239359731102775" pbc="F F F"
O       -0.02669212       0.76418146      -0.07392599       0.28508571      -1.61592837       1.49733303
C       -0.76488180      -0.47005243       0.05285611       2.47484791       0.75754198      -3.29247297
C        0.74607045      -0.53517250       0.01620420      -5.12216564       2.67870696      -1.88103933
H       -1.28307704      -0.70211691       0.95056003      -0.50434497       0.09459252       0.67662241
H       -1.21227279      -0.62170690      -0.96193710      -0.24589525      -0.52850230       1.34718417
H        1.24836220      -0.65170769      -0.87119896       1.05204506      -0.91030564      -1.99544700
H        1.23986416      -0.67755376       0.86465942       2.06197112      -0.48180190       3.65919804
7
Properties=species:S:1:pos:R:3:forces:R:3 C2H4O=T energy=-4180.980630444951 dipole="-0.0009472272069092757 -0.39302520605787045 0.02195556246629377" pbc="F F F"
O       -0.08072003       0.81986294       0.06781211       1.37694819       0.18850119      -0.48625078
C       -0.73249010      -0.39684385       0.01808180       1.71976384       0.08234725      -5.07650211
C        0.69663355      -0.42895071       0.07690183       0.47079660       0.19063918      -4.77374789
H       -1.26561423      -0.59003863       0.78898896      -3.62619055      -1.42216328       5.35138149
H       -1.22272764      -0.66391856      -0.93492659       0.27499181       0.21387798       0.26983618
H        1.26841086      -0.76764931      -0.93095981      -1.36418428       1.22123905       2.18960346
H        1.28167850      -0.59437611       0.89406266       1.14504055      -0.46412924       2.52669940
7
Properties=species:S:1:pos:R:3:forces:R:3 C2H4O=T energy=-4181.5072451292945 dipole="-0.006519463234146523 -0.36344949175945734 -0.01248858216930665" pbc="F F F"
O       -0.06133438       0.75414879       0.04577022       0.48335290       1.60337053      -0.35284479
C       -0.71245203      -0.47350850       0.02566337      -0.11759795       0.04614602      -3.18174599
C        0.73374342      -0.39858824      -0.03510265       0.86167560      -2.12585594       1.60376139
H       -1.28020604      -0.68787622       0.84680047      -1.07744543      -0.75904030       2.44457255
H       -1.24901676      -0.65521815      -0.91972055       0.19286248      -0.02956663       0.29549890
H        1.25209346      -0.73903940      -0.94100849      -0.19307596       0.74399720       0.02928103
H        1.24668714      -0.70838467       0.91191188      -0.15307837       0.53105898      -0.84576965
7
Properties=species:S:1:pos:R:3:forces:R:3 C2H4O=T energy=-4180.99913816431 dipole="-0.01109155433341811 -0.45515061057806544 0.0023336714985865395" pbc="F F F"
O       -0.00070716       0.87354594       0.00872900      -0.07661569      -3.26598835      -0.14069118
C       -0.71601207      -0.45074279      -0.09593856       1.30562792       2.04250471       7.01491005
C        0.72756385      -0.44400898       0.12316211      -0.77902972       1.24481612      -5.23197578
H       -1.27344098      -0.65319344       0.91824063       0.70053360       0.42967496      -2.01018646
H       -1.32225667      -0.61112977      -0.88237957      -1.22493720      -0.64244597      -3.23115861
H        1.30337442      -0.71374023      -0.84983650      -0.49102543       0.63751922       1.94047383
H        1.19373032      -0.63892796       1.02949895       0.56836525      -0.45199330       1.65560063
7
Properties=species:S:1:pos:R:3:forces:R:3 C2H4O=T energy=-4181.4348578251265 dipole="-0.014330118862068818 -0.3880191896459365 -0.00419637527977126" pbc="F F F"
O       -0.07043652       0.75092176       0.00498268      -0.54853809       0.54951653      -0.67922499
C       -0.75406337      -0.52455366       0.00342815       1.84760483       1.31511864      -1.28778458
C        0.67577435      -0.42334087      -0.04597121       3.04124011      -1.58899296       0.48951415
H       -1.18632621      -0.70743347       0.90387314      -1.56310260      -0.80731871       2.34192931
H       -1.22314691      -0.72981413      -0.90860322      -1.08402597      -0.34157963      -1.06937723
H        1.32917996      -0.74864502      -0.91074453      -1.21949503       0.83794233       0.27510511
H        1.27681701      -0.62917967       0.85812863      -0.48156133       0.04581219      -0.07527078
7
Properties=species:S:1:pos:R:3:forces:R:3 C2H4O=T energy=-4181.287986281258 dipole="0.009334685994346158 -0.4037357527996826 -0.030305978848991184" pbc="F F F"
O       -0.08693253       0.80533372       0.01484934       1.48850576      -0.13479396      -1.10737321
C       -0.71636495      -0.42969808      -0.03400124       1.76827403       0.04868918       0.46584835
C        0.74050222      -0.43236687      -0.03571757      -0.00439446       0.58642627       4.25574793
H       -1.17053420      -0.64457916       0.86041105      -1.33627115      -0.84795769       2.07877373
H       -1.23099509      -0.71700499      -0.88062199      -1.11672884      -0.27495654      -2.02482437
H        1.32175260      -0.70930498      -0.87180741       0.41851123       0.28174747      -1.16455928
H        1.28446192      -0.62716780       1.01481582      -1.22574590       0.35053153      -2.50984264
7
Properties=species:S:1:pos:R:3:forces:R:3 C2H4O=T energy=-4181.467938979938 dipole="0.014869879616843936 -0.3453304640697515 0.01585414922849268" pbc="F F F"
O       -0.03317911       0.74154984      -0.04447561      -0.45081179       1.78006580       0.32719404
C       -0.76968010      -0.45087558       0.01705760       1.20595238      -0.88866956       0.28104150
C        0.74272408      -0.40566133       0.00065009      -0.95290086      -1.47254631      -0.50603272
H       -1.19114623      -0.68150365       1.05598468       0.03498011       0.30096325      -1.89264930
H       -1.23253940      -0.71112879      -0.97352084      -0.06371713       0.07925108       1.45753053
H        1.28794644      -0.67944400      -0.88427620       0.01839758      -0.00187095      -0.64419779
H        1.28748475      -0.67191226       0.87763648       0.20685922       0.21187116       0.98873773
7
Properties=species:S:1:pos:R:3:forces:R:3 C2H4O=T energy=-4181.136007138328 dipole="0.009821529028064891 -0.3998463003020384 -0.027675968112488892" pbc="F F F"
O       -0.09665206       0.75691090       0.04282005       1.47099991      -0.92641852      -0.29811565
C       -0.71818490      -0.50930743       0.00865905       0.82197704       0.80489163       2.80129246
C        0.74815541      -0.49121336       0.00768626      -1.34524448       1.36397373       5.13842563
H       -1.26091249      -0.72541932       0.93786559       0.12187190      -0.25441311      -0.35462305
H       -1.23578354      -0.61411835      -0.86728612      -1.34218375      -0.87471716      -2.21987810
H        1.19493935      -0.71516211      -0.89422446       1.48219783      -0.22083186      -1.62048869
H        1.28951217      -0.64251843       1.11261274      -1.21431741       0.11617703      -3.44860726
7
Properties=species:S:1:pos:R:3:forces:R:3 C2H4O=T energy=-4181.073139251946 dipole="-0.012742587230377295 -0.4365711987151689 0.0029316417465236797" pbc="F F F"
O        0.00763482       0.83601493       0.04770020      -0.42993264      -1.81265613      -0.81593346
C       -0.69632003      -0.46278395       0.03794846      -0.18522468       1.36655332      -6.45834082
C        0.69024828      -0.45886142      -0.02426818       3.49297105       0.81047448      -0.59321442
H       -1.25972922      -0.55253788       0.82661296      -2.68212767      -1.02075275       4.55726803
H       -1.22950976      -0.74890670      -0.94357281       0.63335540       0.80298403       1.45394385
H        1.31827035      -0.66505686      -0.97386346      -1.40207455       0.24665524       1.43363114
H        1.22805768      -0.63429092       0.88345784       0.57088386      -0.38580440       0.42122867
7
Properties=species:S:1:pos:R:3:forces:R:3 C2H4O=T energy=-4180.951799957621 dipole="0.06563384942623322 -0.38200244476182565 -0.04260405722249485" pbc="F F F"
O       -0.01008677       0.78151524      -0.03257991       1.33711929       1.05080446      -0.22205705
C       -0.62169239      -0.41532454      -0.10125713      -6.65263636      -2.16745574       4.40212032
C        0.73821226      -0.48010981       0.04262167       2.49853760       0.36978348       1.40001196
H       -1.30344897      -0.67400763       0.94522558       1.72647834       0.62289645      -2.76846849
H       -1.22053501      -0.72828573      -0.93670128       0.15996015       0.12684599      -0.80275506
H        1.24007555      -0.70093732      -0.83170351       1.52077387      -0.28905174      -1.73642765
H        1.28407196      -0.73131501       0.96586927      -0.59209778       0.29036315      -0.27037935
7
Properties=species:S:1:pos:R:3:forces:R:3 C2H4O=T energy=-4180.888525829817 dipole="-0.030454148467949055 -0.4113029869107455 -0.022087856768934728" pbc="F F F"
O        0.08519811       0.83085991      -0.07596839      -1.83144397      -0.77070828       0.46010084
C       -0.75310129      -0.38367493      -0.03538347       3.00514696      -0.29282213       3.21028720
C        0.75108051      -0.40828879      -0.04634652      -1.11123750      -0.82298577       4.68525744
H       -1.26679920      -0.83033418       0.86875684       0.80025224       1.65447783      -0.29783956
H       -1.27645118      -0.73066007      -0.83835565      -1.05809540       0.01133542      -2.88888940
H        1.19231575      -0.69027308      -0.91343919       1.67907622      -0.80081525      -2.58691850
H        1.33588653      -0.74006392       0.97813436      -1.47892984       1.03359205      -2.57760252
7
Properties=species:S:1:pos:R:3:forces:R:3 C2H4O=T energy=-4181.512959596116 dipole="-0.006588256271519822 -0.3448912469849835 -0.0016139904922197156" pbc="F F F"
O       -0.02039805       0.73016121       0.02310528      -0.55478450       2.01945815      -0.03650699
C       -0.71893661      -0.47703133       0.00349010      -2.50152384      -0.95828899       1.62225237
C        0.70962386      -0.44134462       0.03310653       2.72418284      -2.02670430      -1.69041975
H       -1.18452209      -0.73016158       1.02662789       0.28956719       0.36786058      -1.73960617
H       -1.36142716      -0.67586016      -0.89056036       0.83552562       0.08381729       0.74008299
H        1.27787241      -0.69940584      -0.93038233      -0.65935864       0.44477982       1.42920779
H        1.23917282      -0.69773905       0.96245627      -0.13387594       0.08204421      -0.32751030
7
Properties=species:S:1:pos:R:3:forces:R:3 C2H4O=T energy=-4181.518244949231 dipole="-0.002608843648079737 -0.34730429506515453 -0.008699673341669548" pbc="F F F"
O       -0.00305893       0.74459117       0.04498010       0.16006606       2.74764032      -0.30324941
C       -0.71352461      -0.40637738       0.03148144      -2.22228779      -1.99181991      -0.30484446
C        0.68743979      -0.47502954       0.03736468       4.04872626      -0.58865719       1.51312527
H       -1.23330442      -0.66931589       0.92584259      -0.56423064      -0.03481216       0.60948766
H       -1.19993953      -0.69784948      -0.89262135      -0.34050383       0.22880737      -0.15445779
H        1.25371319      -0.67915492      -0.86503738      -0.06008043      -0.15667526      -0.16558615
H        1.30509369      -0.62759533       0.98525011      -1.01893934      -0.19280778      -1.19608325
7
Properties=species:S:1:pos:R:3:forces:R:3 C2H4O=T energy=-4180.914889572595 dipole="0.014150198610477113 -0.42656445766340667 0.018357157434459648" pbc="F F F"
O       -0.01985951       0.81333429      -0.01551323       0.32478084      -2.18499308       0.76781900
C       -0.71268127      -0.45352764       0.00484980       0.43662279       0.58240427       3.52468029
C        0.75864739      -0.48793152       0.10461936      -4.34561714       2.17496746      -9.52350681
H       -1.31412380      -0.72898024       0.97788176       1.07568206       0.84132583      -1.86482289
H       -1.22423964      -0.63706492      -0.88855894      -0.58323411      -0.61458390      -1.32264831
H        1.26321048      -0.71313358      -0.91618599      -0.45915678       0.25326476       2.11146428
H        1.22996478      -0.61951482       0.91262330       3.54452843      -1.04937242       6.31406937
7
Properties=species:S:1:pos:R:3:forces:R:3 C2H4O=T energy=-4181.551286705874 dipole="0.004434505024524989 -0.3964489826102185 -0.0030480607328477252" pbc="F F F"
O       -0.06218456       0.76316735       0.02064668       0.36499845      -1.10938134       0.16972975
C       -0.75707582      -0.48813151       0.01218436       3.03493359       1.13180490      -3.41419126
C        0.74113787      -0.47236765      -0.02355192      -1.16608905       0.59853696       0.72916558
H       -1.25222043      -0.74067503       0.84960303      -1.52446194      -0.78150136       3.12316059
H       -1.29974498      -0.67894327      -0.90443084      -0.01245028      -0.04699298      -0.21815891
H        1.33759063      -0.62538788      -0.92797315      -0.46249820      -0.01559130       0.09568522
H        1.26287206      -0.71839728       0.91905051      -0.24012331       0.23305730      -0.49246304
7
Properties=species:S:1:pos:R:3:forces:R:3 C2H4O=T energy=-4181.485506263238 dipole="0.03211576490911952 -0.3521145159091799 0.004021746800285193" pbc="F F F"
O       -0.03534263       0.79537257      -0.04136144       0.97943715       1.98063345       0.04287477
C       -0.70292226      -0.37038354      -0.00543801      -2.20042386      -2.77247749      -0.16995464
C        0.74897513      -0.41251329      -0.02006102      -1.53904556       0.41352391       3.08194395
H       -1.25261831      -0.66764119       0.92486002       0.59414258       0.51022286      -0.50297913
H       -1.30247326      -0.66704540      -0.89507631       0.55467450       0.36664494       0.31698593
H        1.33638000      -0.62030732      -0.81231710       1.50660878      -0.59629595      -2.98153996
H        1.22545549      -0.62465478       0.92914327       0.10195648       0.11037572       0.21594909
7
Properties=species:S:1:pos:R:3:forces:R:3 C2H4O=T energy=-4180.934081442037 dipole="-0.07776259109235646 -0.3545910652546187 0.03439122691454404" pbc="F F F"
O        0.08858044       0.73882173      -0.04198598      -3.54257556       2.21190426       0.05094219
C       -0.75885922      -0.55321528      -0.02628775       2.23986046       2.26807477      -3.48303554
C        0.69093291      -0.43950080       0.01708780       2.79825085      -2.30187374      -3.94577013
H       -1.17001439      -0.62074962       0.89113104      -1.97060490      -0.45613799       2.64513517
H       -1.30874350      -0.64367495      -0.98598788       0.42244143      -0.21040957       1.01284990
H        1.35539576      -0.60929885      -0.94343500      -1.18107994      -0.49587954       1.82812755
H        1.17816614      -0.60057719       0.91424918       1.23807669      -1.01023842       1.89315080
7
Properties=species:S:1:pos:R:3:forces:R:3 C2H4O=T energy=-4181.4451016885405 dipole="0.0012541499890363036 -0.33208515848933856 -0.009599274599628078" pbc="F F F"
O        0.04098111       0.69951526      -0.02996864      -0.77594100       2.22570791      -0.74390182
C       -0.72862741      -0.44467146      -0.02250327       0.32813271      -1.19297898       2.54908184
C        0.76003204      -0.50040151      -0.00711897      -2.15746926       0.14830850       2.52660486
H       -1.25780815      -0.64254887       0.95555696       0.59239777       0.22040768      -0.97988937
H       -1.32005487      -0.74497662      -0.85609238      -0.10956327       0.16599436      -1.00244948
H        1.28043852      -0.70569519      -0.84241862       1.75118819      -0.90107581      -2.96811762
H        1.26960660      -0.60930595       0.92335209       0.37375688      -0.65859972       0.62188382
7
Properties=species:S:1:pos:R:3:forces:R:3 C2H4O=T energy=-4180.918316049617 dipole="-0.06286625261498432 -0.43136409496322076 0.043826456578897326" pbc="F F F"
O        0.08212769       0.86700369      -0.01244810      -1.87358935      -0.84516980       1.29331740
C       -0.68031104      -0.41475169       0.06843158      -3.74095349       0.84073696      -3.18044086
C        0.68064337      -0.41271792       0.05292122       4.78645315      -0.27610737      -3.98351727
H       -1.35175990      -0.72743374       0.81801461      -0.02378123       0.47547135       2.03299737
H       -1.27729311      -0.63239380      -0.84485837       0.89956741       0.36917339       0.05638671
H        1.26752756      -0.58684008      -0.98898129      -1.17081682      -0.32829637       2.65259629
H        1.17865375      -0.67104819       0.93917944       1.12676864      -0.23078906       1.12910103
7
Properties=species:S:1:pos:R:3:forces:R:3 C2H4O=T energy=-4181.165332628879 dipole="-0.014404203671547757 -0.286607669013482 -0.0005291772105638411" pbc="F F F"
O       -0.02254444       0.67586454      -0.00445589      -0.52414164       5.61566865      -0.79158398
C       -0.79411307      -0.41353686       0.01832991       1.34018505      -2.04965860      -4.53808933
C        0.68189555      -0.47271384      -0.05296068       1.77424774      -2.13685735       1.99053827
H       -1.26695688      -0.62051369       0.87068992      -2.03675971      -0.91142574       3.31245185
H       -1.23862044      -0.69478379      -0.95961986      -0.33466182       0.31423963       0.78385442
H        1.25847130      -0.72003298      -0.94765869      -0.32204849      -0.02844256       0.00348121
H        1.20392898      -0.57003455       0.92173935       0.10233715      -0.80096871      -0.76263012
7
Properties=species:S:1:pos:R:3:forces:R:3 C2H4O=T energy=-4181.302048027086 dipole="0.03414780539768467 -0.3853468447325891 -0.0037889088276371026" pbc="F F F"
O       -0.05589598       0.78993564      -0.00561629       0.27125115      -0.05429432       0.94522145
C       -0.73993807      -0.41631215       0.03787539      -1.31397659      -1.40540237       1.21217232
C        0.70236448      -0.47581140      -0.01375258      -1.01852711       1.48347032       1.09369802
H       -1.37891899      -0.74403036       0.98831993       1.64083316       0.95653492      -1.86927653
H       -1.18157438      -0.68072271      -0.89114837      -0.99198104      -0.12906717      -0.68322350
H        1.27938533      -0.51432682      -0.86399747       0.79603220      -0.77372180      -2.27755209
H        1.25742699      -0.71604783       0.83965385       0.61678756      -0.06556665       1.58359203
7
Properties=species:S:1:pos:R:3:forces:R:3 C2H4O=T energy=-4181.412892356958 dipole="-0.001185356951663004 -0.3828808789313616 0.05620920330609121" pbc="F F F"
O       -0.01073652       0.74141911      -0.07111257      -0.29792969      -0.55042847       1.59336815
C       -0.76121823      -0.50109789       0.08435708       2.64351008       0.68837383      -3.18100721
C        0.77297153      -0.44741912       0.07399721      -2.08373217      -0.79935389      -1.24754079
H       -1.25995451      -0.71133502       0.99613242      -0.55394499       0.22560766       0.72669493
H       -1.23687727      -0.72013322      -0.92949315       0.34779259      -0.15290776       1.80176561
H        1.22004191      -0.73741085      -0.87366734       0.22851176      -0.16329759       0.09599663
H        1.35929370      -0.73819919       0.94812463      -0.28194979       0.74624038       0.22205449
7
Properties=species:S:1:pos:R:3:forces:R:3 C2H4O=T energy=-4181.477648725478 dipole="0.015732438470062997 -0.37188457649584505 -0.00835570815480305" pbc="F F F"
O       -0.05344183       0.75488038      -0.02961959       0.34609853       0.25417577      -0.46652163
C       -0.77208913      -0.44459441      -0.04154751       1.88666127      -0.43463348       4.12248359
C        0.74241238      -0.44953240      -0.01194740      -2.46846233       0.11133022      -1.29698843
H       -1.30920111      -0.69710938       0.95774578       0.80081230       0.45508094      -1.85399873
H       -1.23877691      -0.71714867      -0.91500960      -1.21899192      -0.43072397      -2.03390239
H        1.30139218      -0.75174112      -0.89280821      -0.15888151       0.38629361      -0.27023619
H        1.23069168      -0.63974088       0.88181321       0.81161364      -0.32899694       1.80006851
7
Properties=species:S:1:pos:R:3:forces:R:3 C2H4O=T energy=-4180.89649741855 dipole="0.0006508879689935246 -0.3156224554686974 -0.012430372676144628" pbc="F F F"
O       -0.11115381       0.69785952       0.00240436       1.64828402       4.24553588       0.22052876
C       -0.71590346      -0.49223632       0.03192962      -5.31796874      -1.83204845      -3.62294971
C        0.64581354      -0.45032448      -0.06055081       6.86453288      -2.76462225       2.58579100
H       -1.29641474      -0.66590088       0.87695555      -0.72606462      -0.81729022       1.66658580
H       -1.28305055      -0.61795627      -0.94882081       0.35590991      -0.51238056       1.27827516
H        1.30560743      -0.72475620      -0.89348601      -0.93227106       0.47787667      -0.54934073
H        1.33590130      -0.79185304       0.88013141      -1.89800602       1.21398491      -1.58641037
7
Properties=species:S:1:pos:R:3:forces:R:3 C2H4O=T energy=-4181.379734451562 dipole="-0.0043339613545178585 -0.3692916081640822 0.006254874628864602" pbc="F F F"
O        0.00794390       0.76908438       0.01855740      -0.38131713      -0.34407346       0.18409708
C       -0.75908885      -0.44269100      -0.00778386       3.54081117       0.33872255       0.97504489
C        0.78727864      -0.43429945       0.01688013      -3.29866569       0.55954537      -4.71332573
H       -1.28441678      -0.69265112       0.89834831      -0.07737299       0.08613009       0.34999526
H       -1.24410016      -0.68932013      -0.90548748      -0.55737710      -0.07142528      -1.26703225
H        1.36759286      -0.62471462      -0.93627740      -0.94450618       0.18057248       0.86840910
H        1.32388357      -0.68867458       0.81806994       1.71781832      -0.73910634       3.59992924
7
Properties=species:S:1:pos:R:3:forces:R:3 C2H4O=T energy=-4180.460861199654 dipole="0.014732293542097338 -0.24243195547561253 -0.010583544211276823" pbc="F F F"
O       -0.07131402       0.68569705      -0.01757556       2.98450076      10.37920840       0.10140280
C       -0.72796867      -0.36319862       0.01634637      -3.11990507      -6.88026844      -4.17471984
C        0.71793451      -0.40555021      -0.11055677       1.18939508      -2.67559829       6.23561162
H       -1.25204220      -0.62972755       0.84604691      -1.34169178      -0.90078898       2.67598958
H       -1.20663507      -0.65134609      -0.94074062      -0.48468092       0.11510446       0.41775410
H        1.29546191      -0.55473622      -0.91088291       1.61584046      -0.64123587      -3.55624726
H        1.27623390      -0.69123885       0.87748395      -0.84523303       0.61298493      -1.70572223
7
Properties=species:S:1:pos:R:3:forces:R:3 C2H4O=T energy=-4181.196243656634 dipole="0.00876317460693721 -0.36165558101564593 -0.0020108734001425964" pbc="F F F"
O        0.02060709       0.73643245       0.00357842      -0.22611736       0.81195476       0.12670645
C       -0.75277246      -0.42307150       0.01668311       2.17145160      -0.90841977       0.98669056
C        0.78076654      -0.47252131      -0.01349375      -5.45860091       1.29643788       0.13147558
H       -1.31276112      -0.69048547       0.93884124       0.62113978       0.39016253      -0.45518648
H       -1.22597334      -0.71437918      -0.87649592      -0.74379101       0.04985813      -1.21844238
H        1.33160471      -0.64759911      -0.82613643       1.67171383      -0.75267843      -3.60392239
H        1.22513341      -0.73050355       0.83104016       1.96492924      -0.87814590       4.03140695
7
Properties=species:S:1:pos:R:3:forces:R:3 C2H4O=T energy=-4180.782294323626 dipole="-0.049128812228747015 -0.4117104533628797 0.043503658480453386" pbc="F F F"
O        0.05389251       0.81195493      -0.00277912      -0.83720977      -1.61135608       1.03201024
C       -0.71489116      -0.50329494       0.12228760       4.52410174       3.17262781      -9.22470612
C        0.73535060      -0.44155075       0.03628833       1.46557374      -0.35768484      -1.62716153
H       -1.23977247      -0.65707661       0.88045250      -4.05064189      -1.10749855       6.97822912
H       -1.24024935      -0.57416969      -0.85270522       0.19915652      -0.48925548       0.81504348
H        1.34348215      -0.69383164      -0.96945646      -1.52177506       0.25585956       2.39053042
H        1.25753352      -0.66548456       0.97468575       0.23066318       0.13902758      -0.35899916
7
Properties=species:S:1:pos:R:3:forces:R:3 C2H4O=T energy=-4180.6526221466975 dipole="0.024410944723309992 -0.46292422380124826 -0.04726610844756229" pbc="F F F"
O       -0.10553293       0.85571416      -0.00790028       0.90770099      -3.82465727      -1.41523066
C       -0.75023364      -0.49762571      -0.08274283       2.00668720       2.02244085       6.01778441
C        0.77004807      -0.44335459      -0.06449804      -3.44499640       1.25570589       4.68838970
H       -1.32857687      -0.68506004       1.00342730       1.52778562       0.14391905      -3.20502601
H       -1.27680234      -0.74342806      -0.93226337      -1.08854720      -0.29439087      -1.96270506
H        1.25018664      -0.80311519      -0.92269096       0.96760914       0.35494039      -1.33328460
H        1.25227614      -0.63346049       1.01242397      -0.87685399       0.35015093      -2.79161156
7
Properties=species:S:1:pos:R:3:forces:R:3 C2H4O=T energy=-4180.80813191918 dipole="0.013737440386237317 -0.3437323488938487 0.032131640225436436" pbc="F F F"
O        0.03541855       0.76579221      -0.05532618      -0.68988687       2.54507331       0.62867703
C       -0.60022160      -0.44405957       0.00069646      -9.96545392      -1.92195141      -0.09210909
C        0.72768329      -0.43711625      -0.00721802       6.40330589      -0.80771068      -4.76926434
H       -1.29250603      -0.69561376       0.91833856       1.78976040       0.68097279      -1.22178923
H       -1.29099401      -0.70391320      -0.91465471       1.74932141       0.39082435       1.31380720
H        1.25107396      -0.59307121      -1.05252471      -0.64615926      -0.33383761       2.20083709
H        1.31839821      -0.60596655       0.81630666       1.35967948      -0.54492222       1.94494464
7
Properties=species:S:1:pos:R:3:forces:R:3 C2H4O=T energy=-4181.040402259642 dipole="0.013864442916772638 -0.35321520450715266 0.06083950389852482" pbc="F F F"
O       -0.03804408       0.76066460      -0.07037547      -0.79417953       0.14921437       1.54962713
C       -0.76778042      -0.50254928       0.08761352       2.36780457       1.43061630      -5.12023381
C        0.77567346      -0.38344274       0.03608360      -4.82540355      -0.14685244      -4.42187190
H       -1.32027552      -0.69449682       0.94444495      -0.66916935      -0.00201155       1.79321437
H       -1.32492916      -0.63262099      -0.93199249       1.02742922      -0.42722052       2.12692139
H        1.24508178      -0.63272286      -0.89776305       0.35871883      -0.40253351      -0.25565022
H        1.24577456      -0.61030432       0.86592300       2.54294301      -0.60676507       4.34088069
7
Properties=species:S:1:pos:R:3:forces:R:3 C2H4O=T energy=-4181.328352002205 dipole="-0.018468284648678057 -0.45306565236844387 0.023056251064266557" pbc="F F F"
O        0.00988708       0.80889171      -0.01547721      -1.11712954      -2.04423640       1.09355533
C       -0.71258294      -0.50957617       0.04620135       1.80341519       2.14833329      -1.72600044