7
Properties=species:S:1:pos:R:3:forces:R:3 C2H4O=T energy=-4181.764945393823 dipole="-0.0 -0.385055797266779 -0.0" pbc="F F F"
O        0.00000005       0.76692431       0.00000011       0.00000126      -0.00147639      -0.00000345
C       -0.72888959      -0.44702049       0.00000000       0.00655562       0.00581037       0.00000071
C        0.72888954      -0.44702049      -0.00000000      -0.00655676       0.00580855       0.00000102
H       -1.26382293      -0.66827081       0.91997622      -0.00167957       0.00032936      -0.00117297
H       -1.26382277      -0.66827091      -0.91997622      -0.00167864       0.00033202       0.00117344
H        1.26382282      -0.66827086      -0.91997622       0.00167962       0.00033272       0.00117411
H        1.26382287      -0.66827081       0.91997617       0.00167996       0.00032958      -0.00117330
