
                                 *****************
                                 * O   R   C   A *
                                 *****************

                                            #,                                       
                                            ###                                      
                                            ####                                     
                                            #####                                    
                                            ######                                   
                                           ########,                                 
                                     ,,################,,,,,                         
                               ,,#################################,,                 
                          ,,##########################################,,             
                       ,#########################################, ''#####,          
                    ,#############################################,,   '####,        
                  ,##################################################,,,,####,       
                ,###########''''           ''''###############################       
              ,#####''   ,,,,##########,,,,          '''####'''          '####       
            ,##' ,,,,###########################,,,                        '##       
           ' ,,###''''                  '''############,,,                           
         ,,##''                                '''############,,,,        ,,,,,,###''
      ,#''                                            '''#######################'''  
     '                                                          ''''####''''         
             ,#######,   #######,   ,#######,      ##                                
            ,#'     '#,  ##    ##  ,#'     '#,    #''#        ######   ,####,        
            ##       ##  ##   ,#'  ##            #'  '#       #        #'  '#        
            ##       ##  #######   ##           ,######,      #####,   #    #        
            '#,     ,#'  ##    ##  '#,     ,#' ,#      #,         ##   #,  ,#        
             '#######'   ##     ##  '#######'  #'      '#     #####' # '####'        



                  #######################################################
                  #                        -***-                        #
                  #          Department of theory and spectroscopy      #
                  #    Directorship and core code : Frank Neese         #
                  #        Max Planck Institute fuer Kohlenforschung    #
                  #                Kaiser Wilhelm Platz 1               #
                  #                 D-45470 Muelheim/Ruhr               #
                  #                      Germany                        #
                  #                                                     #
                  #                  All rights reserved                #
                  #                        -***-                        #
                  #######################################################


                         Program Version 5.0.2 -  RELEASE  -


 With contributions from (in alphabetic order):
   Daniel Aravena         : Magnetic Suceptibility
   Michael Atanasov       : Ab Initio Ligand Field Theory (pilot matlab implementation)
   Alexander A. Auer      : GIAO ZORA, VPT2 properties, NMR spectrum
   Ute Becker             : Parallelization
   Giovanni Bistoni       : ED, misc. LED, open-shell LED, HFLD
   Martin Brehm           : Molecular dynamics
   Dmytro Bykov           : SCF Hessian
   Vijay G. Chilkuri      : MRCI spin determinant printing, contributions to CSF-ICE
   Dipayan Datta          : RHF DLPNO-CCSD density
   Achintya Kumar Dutta   : EOM-CC, STEOM-CC
   Dmitry Ganyushin       : Spin-Orbit,Spin-Spin,Magnetic field MRCI
   Miquel Garcia          : C-PCM and meta-GGA Hessian, CC/C-PCM, Gaussian charge scheme
   Yang Guo               : DLPNO-NEVPT2, F12-NEVPT2, CIM, IAO-localization
   Andreas Hansen         : Spin unrestricted coupled pair/coupled cluster methods
   Benjamin Helmich-Paris : MC-RPA, TRAH-SCF, COSX integrals
   Lee Huntington         : MR-EOM, pCC
   Robert Izsak           : Overlap fitted RIJCOSX, COSX-SCS-MP3, EOM
   Marcus Kettner         : VPT2
   Christian Kollmar      : KDIIS, OOCD, Brueckner-CCSD(T), CCSD density, CASPT2, CASPT2-K
   Simone Kossmann        : Meta GGA functionals, TD-DFT gradient, OOMP2, MP2 Hessian
   Martin Krupicka        : Initial AUTO-CI
   Lucas Lang             : DCDCAS
   Marvin Lechner         : AUTO-CI (C++ implementation), FIC-MRCC
   Dagmar Lenk            : GEPOL surface, SMD
   Dimitrios Liakos       : Extrapolation schemes; Compound Job, initial MDCI parallelization
   Dimitrios Manganas     : Further ROCIS development; embedding schemes
   Dimitrios Pantazis     : SARC Basis sets
   Anastasios Papadopoulos: AUTO-CI, single reference methods and gradients
   Taras Petrenko         : DFT Hessian,TD-DFT gradient, ASA, ECA, R-Raman, ABS, FL, XAS/XES, NRVS
   Peter Pinski           : DLPNO-MP2, DLPNO-MP2 Gradient
   Christoph Reimann      : Effective Core Potentials
   Marius Retegan         : Local ZFS, SOC
   Christoph Riplinger    : Optimizer, TS searches, QM/MM, DLPNO-CCSD(T), (RO)-DLPNO pert. Triples
   Tobias Risthaus        : Range-separated hybrids, TD-DFT gradient, RPA, STAB
   Michael Roemelt        : Original ROCIS implementation
   Masaaki Saitow         : Open-shell DLPNO-CCSD energy and density
   Barbara Sandhoefer     : DKH picture change effects
   Avijit Sen             : IP-ROCIS
   Kantharuban Sivalingam : CASSCF convergence, NEVPT2, FIC-MRCI
   Bernardo de Souza      : ESD, SOC TD-DFT
   Georgi Stoychev        : AutoAux, RI-MP2 NMR, DLPNO-MP2 response
   Willem Van den Heuvel  : Paramagnetic NMR
   Boris Wezisla          : Elementary symmetry handling
   Frank Wennmohs         : Technical directorship


 We gratefully acknowledge several colleagues who have allowed us to
 interface, adapt or use parts of their codes:
   Stefan Grimme, W. Hujo, H. Kruse, P. Pracht,  : VdW corrections, initial TS optimization,
                  C. Bannwarth, S. Ehlert          DFT functionals, gCP, sTDA/sTD-DF
   Ed Valeev, F. Pavosevic, A. Kumar             : LibInt (2-el integral package), F12 methods
   Garnet Chan, S. Sharma, J. Yang, R. Olivares  : DMRG
   Ulf Ekstrom                                   : XCFun DFT Library
   Mihaly Kallay                                 : mrcc  (arbitrary order and MRCC methods)
   Jiri Pittner, Ondrej Demel                    : Mk-CCSD
   Frank Weinhold                                : gennbo (NPA and NBO analysis)
   Christopher J. Cramer and Donald G. Truhlar   : smd solvation model
   Lars Goerigk                                  : TD-DFT with DH, B97 family of functionals
   V. Asgeirsson, H. Jonsson                     : NEB implementation
   FAccTs GmbH                                   : IRC, NEB, NEB-TS, DLPNO-Multilevel, CI-OPT
                                                   MM, QMMM, 2- and 3-layer-ONIOM, Crystal-QMMM,
                                                   LR-CPCM, SF, NACMEs, symmetry and pop. for TD-DFT,
                                                   nearIR, NL-DFT gradient (VV10), updates on ESD,
                                                   ML-optimized integration grids
   S Lehtola, MJT Oliveira, MAL Marques          : LibXC Library
   Liviu Ungur et al                             : ANISO software


 Your calculation uses the libint2 library for the computation of 2-el integrals
 For citations please refer to: http://libint.valeyev.net

 Your ORCA version has been built with support for libXC version: 5.1.0
 For citations please refer to: https://tddft.org/programs/libxc/

 This ORCA versions uses:
   CBLAS   interface :  Fast vector & matrix operations
   LAPACKE interface :  Fast linear algebra routines
   SCALAPACK package :  Parallel linear algebra routines
   Shared memory     :  Shared parallel matrices
   BLAS/LAPACK       :  OpenBLAS 0.3.15  USE64BITINT DYNAMIC_ARCH NO_AFFINITY SkylakeX SINGLE_THREADED
        Core in use  :  SkylakeX
   Copyright (c) 2011-2014, The OpenBLAS Project


Your calculation utilizes the atom-pairwise dispersion correction
with the Becke-Johnson damping scheme (D3BJ)
Cite in your paper:
S.Grimme, S.Ehrlich, L.Goerigk, J Comput Chem, (2011), 32, 1456–1465 
S.Grimme, J.Antony, S.Ehrlich and H.Krieg, J.Chem.Phys., 132, (2010), 154104 
   

================================================================================

----- Orbital basis set information -----
Your calculation utilizes the basis: def2-TZVP
   F. Weigend and R. Ahlrichs, Phys. Chem. Chem. Phys. 7, 3297 (2005).

----- AuxJ basis set information -----
Your calculation utilizes the auxiliary basis: def2/J
   F. Weigend, Phys. Chem. Chem. Phys. 8, 1057 (2006).

================================================================================
                                        WARNINGS
                       Please study these warnings very carefully!
================================================================================


INFO   : the flag for use of the SHARK integral package has been found!

================================================================================
                                       INPUT FILE
================================================================================
NAME = ox.inp
|  1> ! engrad PBE0 D3BJ def2-TZVP 
|  2> %pal nprocs 8 end
|  3> %maxcore 4000
|  4>  
|  5> *xyz 0 1 
|  6> O   0.0 0.7942 0.0
|  7> C   -0.765 -0.4128 -0.0
|  8> C   0.765 -0.4128 -0.0
|  9> H   -1.2729 -0.6922 0.9231
| 10> H   -1.2729 -0.6922 -0.9231
| 11> H   1.2729 -0.6922 -0.9231
| 12> H   1.2729 -0.6922 0.9231
| 13> *
| 14> 
| 15>                          ****END OF INPUT****
================================================================================

                     *******************************
                     * Energy+Gradient Calculation *
                     *******************************

---------------------------------
CARTESIAN COORDINATES (ANGSTROEM)
---------------------------------
  O      0.000000    0.794200    0.000000
  C     -0.765000   -0.412800   -0.000000
  C      0.765000   -0.412800   -0.000000
  H     -1.272900   -0.692200    0.923100
  H     -1.272900   -0.692200   -0.923100
  H      1.272900   -0.692200   -0.923100
  H      1.272900   -0.692200    0.923100

----------------------------
CARTESIAN COORDINATES (A.U.)
----------------------------
  NO LB      ZA    FRAG     MASS         X           Y           Z
   0 O     8.0000    0    15.999    0.000000    1.500820    0.000000
   1 C     6.0000    0    12.011   -1.445640   -0.780079   -0.000000
   2 C     6.0000    0    12.011    1.445640   -0.780079   -0.000000
   3 H     1.0000    0     1.008   -2.405432   -1.308068    1.744406
   4 H     1.0000    0     1.008   -2.405432   -1.308068   -1.744406
   5 H     1.0000    0     1.008    2.405432   -1.308068   -1.744406
   6 H     1.0000    0     1.008    2.405432   -1.308068    1.744406

--------------------------------
INTERNAL COORDINATES (ANGSTROEM)
--------------------------------
 O      0   0   0     0.000000000000     0.00000000     0.00000000
 C      1   0   0     1.429011546489     0.00000000     0.00000000
 C      1   2   0     1.429011546489    64.73327613     0.00000000
 H      2   1   3     1.090018522778   117.77141923   106.84092489
 H      2   1   3     1.090018522778   117.77141923   253.15907511
 H      3   1   2     1.090018522778   117.77141923   106.84092489
 H      3   1   2     1.090018522778   117.77141923   253.15907511

---------------------------
INTERNAL COORDINATES (A.U.)
---------------------------
 O      0   0   0     0.000000000000     0.00000000     0.00000000
 C      1   0   0     2.700440465076     0.00000000     0.00000000
 C      1   2   0     2.700440465076    64.73327613     0.00000000
 H      2   1   3     2.059836488953   117.77141923   106.84092489
 H      2   1   3     2.059836488953   117.77141923   253.15907511
 H      3   1   2     2.059836488953   117.77141923   106.84092489
 H      3   1   2     2.059836488953   117.77141923   253.15907511

---------------------
BASIS SET INFORMATION
---------------------
There are 3 groups of distinct atoms

 Group   1 Type O   : 11s6p2d1f contracted to 5s3p2d1f pattern {62111/411/11/1}
 Group   2 Type C   : 11s6p2d1f contracted to 5s3p2d1f pattern {62111/411/11/1}
 Group   3 Type H   : 5s1p contracted to 3s1p pattern {311/1}

Atom   0O    basis set group =>   1
Atom   1C    basis set group =>   2
Atom   2C    basis set group =>   2
Atom   3H    basis set group =>   3
Atom   4H    basis set group =>   3
Atom   5H    basis set group =>   3
Atom   6H    basis set group =>   3
---------------------------------
AUXILIARY/J BASIS SET INFORMATION
---------------------------------
There are 3 groups of distinct atoms

 Group   1 Type O   : 12s5p4d2f1g contracted to 6s4p3d1f1g pattern {711111/2111/211/2/1}
 Group   2 Type C   : 12s5p4d2f1g contracted to 6s4p3d1f1g pattern {711111/2111/211/2/1}
 Group   3 Type H   : 5s2p1d contracted to 3s1p1d pattern {311/2/1}

Atom   0O    basis set group =>   1
Atom   1C    basis set group =>   2
Atom   2C    basis set group =>   2
Atom   3H    basis set group =>   3
Atom   4H    basis set group =>   3
Atom   5H    basis set group =>   3
Atom   6H    basis set group =>   3


           ************************************************************
           *        Program running with 8 parallel MPI-processes     *
           *              working on a common directory               *
           ************************************************************
------------------------------------------------------------------------------
                           ORCA GTO INTEGRAL CALCULATION
                           -- RI-GTO INTEGRALS CHOSEN --
------------------------------------------------------------------------------
------------------------------------------------------------------------------
                   ___                                                        
                  /   \      - P O W E R E D   B Y -                         
                 /     \                                                     
                 |  |  |   _    _      __       _____    __    __             
                 |  |  |  | |  | |    /  \     |  _  \  |  |  /  |          
                  \  \/   | |  | |   /    \    | | | |  |  | /  /          
                 / \  \   | |__| |  /  /\  \   | |_| |  |  |/  /          
                |  |  |   |  __  | /  /__\  \  |    /   |      \           
                |  |  |   | |  | | |   __   |  |    \   |  |\   \          
                \     /   | |  | | |  |  |  |  | |\  \  |  | \   \       
                 \___/    |_|  |_| |__|  |__|  |_| \__\ |__|  \__/        
                                                                              
                      - O R C A' S   B I G   F R I E N D -                    
                                      &                                       
                       - I N T E G R A L  F E E D E R -                       
                                                                              
 v1 FN, 2020, v2 2021                                                         
------------------------------------------------------------------------------


Reading SHARK input file ox.SHARKINP.tmp ... ok
----------------------
SHARK INTEGRAL PACKAGE
----------------------

Number of atoms                             ...      7
Number of basis functions                   ...    117
Number of shells                            ...     49
Maximum angular momentum                    ...      3
Integral batch strategy                     ... SHARK/LIBINT Hybrid
RI-J (if used) integral strategy            ... SPLIT-RIJ (Revised 2003 algorithm where possible)
Printlevel                                  ...      1
Contraction scheme used                     ... SEGMENTED contraction
Coulomb Range Separation                    ... NOT USED
Exchange Range Separation                   ... NOT USED
Finite Nucleus Model                        ... NOT USED
Auxiliary Coulomb fitting basis             ... AVAILABLE
   # of basis functions in Aux-J            ...    191
   # of shells in Aux-J                     ...     65
   Maximum angular momentum in Aux-J        ...      4
Auxiliary J/K fitting basis                 ... NOT available
Auxiliary Correlation fitting basis         ... NOT available
Auxiliary 'external' fitting basis          ... NOT available
Integral threshold                          ...     2.500000e-11
Primitive cut-off                           ...     2.500000e-12
Primitive pair pre-selection threshold      ...     2.500000e-12

Calculating pre-screening integrals         ... done (  0.0 sec) Dimension = 49
Organizing shell pair data                  ... done (  0.0 sec)
Shell pair information
Total number of shell pairs                 ...      1225
Shell pairs after pre-screening             ...      1220
Total number of primitive shell pairs       ...      3648
Primitive shell pairs kept                  ...      3148
          la=0 lb=0:    373 shell pairs
          la=1 lb=0:    351 shell pairs
          la=1 lb=1:     91 shell pairs
          la=2 lb=0:    162 shell pairs
          la=2 lb=1:     78 shell pairs
          la=2 lb=2:     21 shell pairs
          la=3 lb=0:     81 shell pairs
          la=3 lb=1:     39 shell pairs
          la=3 lb=2:     18 shell pairs
          la=3 lb=3:      6 shell pairs

Calculating one electron integrals          ... done (  0.0 sec)
Calculating RI/J V-Matrix + Cholesky decomp.... done (  0.0 sec)
Calculating Nuclear repulsion               ... done (  0.0 sec) ENN=     74.437080177191 Eh

SHARK setup successfully completed in   0.1 seconds

Maximum memory used throughout the entire GTOINT-calculation: 14.9 MB


           ************************************************************
           *        Program running with 8 parallel MPI-processes     *
           *              working on a common directory               *
           ************************************************************
-------------------------------------------------------------------------------
                                 ORCA SCF
-------------------------------------------------------------------------------

------------
SCF SETTINGS
------------
Hamiltonian:
 Density Functional     Method          .... DFT(GTOs)
 Exchange Functional    Exchange        .... PBE
   PBE kappa parameter   XKappa         ....  0.804000
   PBE mue parameter    XMuePBE         ....  0.219520
 Correlation Functional Correlation     .... PBE
   PBE beta parameter  CBetaPBE         ....  0.066725
 LDA part of GGA corr.  LDAOpt          .... PW91-LDA
 Gradients option       PostSCFGGA      .... off
 Hybrid DFT is turned on
   Fraction HF Exchange ScalHFX         ....  0.250000
   Scaling of DF-GGA-X  ScalDFX         ....  0.750000
   Scaling of DF-GGA-C  ScalDFC         ....  1.000000
   Scaling of DF-LDA-C  ScalLDAC        ....  1.000000
   Perturbative correction              ....  0.000000
   Density functional embedding theory  .... OFF
   NL short-range parameter             ....  6.900000
 RI-approximation to the Coulomb term is turned on
   Number of AuxJ basis functions       .... 191
   RIJ-COSX (HFX calculated with COS-X)).... on


General Settings:
 Integral files         IntName         .... ox
 Hartree-Fock type      HFTyp           .... RHF
 Total Charge           Charge          ....    0
 Multiplicity           Mult            ....    1
 Number of Electrons    NEL             ....   24
 Basis Dimension        Dim             ....  117
 Nuclear Repulsion      ENuc            ....     74.4370801772 Eh

Convergence Acceleration:
 DIIS                   CNVDIIS         .... on
   Start iteration      DIISMaxIt       ....    12
   Startup error        DIISStart       ....  0.200000
   # of expansion vecs  DIISMaxEq       ....     5
   Bias factor          DIISBfac        ....   1.050
   Max. coefficient     DIISMaxC        ....  10.000
 Trust-Rad. Augm. Hess. CNVTRAH         .... auto
   Auto Start mean grad. ratio tolernc. ....  1.125000
   Auto Start start iteration           ....    20
   Auto Start num. interpolation iter.  ....    10
   Max. Number of Micro iterations      ....    16
   Max. Number of Macro iterations      .... Maxiter - #DIIS iter
   Number of Davidson start vectors     ....     2
   Converg. threshold I  (grad. norm)   ....   1.000e-05
   Converg. threshold II (energy diff.) ....   1.000e-08
   Grad. Scal. Fac. for Micro threshold ....   0.100
   Minimum threshold for Micro iter.    ....   0.010
   NR start threshold (gradient norm)   ....   0.001
   Initial trust radius                 ....   0.400
   Minimum AH scaling param. (alpha)    ....   1.000
   Maximum AH scaling param. (alpha)    .... 1000.000
   Orbital update algorithm             .... Taylor
   White noise on init. David. guess    .... on
   Maximum white noise                  ....   0.010
   Quad. conv. algorithm                .... NR
 SOSCF                  CNVSOSCF        .... on
   Start iteration      SOSCFMaxIt      ....   150
   Startup grad/error   SOSCFStart      ....  0.003300
 Level Shifting         CNVShift        .... on
   Level shift para.    LevelShift      ....    0.2500
   Turn off err/grad.   ShiftErr        ....    0.0010
 Zerner damping         CNVZerner       .... off
 Static damping         CNVDamp         .... on
   Fraction old density DampFac         ....    0.7000
   Max. Damping (<1)    DampMax         ....    0.9800
   Min. Damping (>=0)   DampMin         ....    0.0000
   Turn off err/grad.   DampErr         ....    0.1000
 Fernandez-Rico         CNVRico         .... off

SCF Procedure:
 Maximum # iterations   MaxIter         ....   125
 SCF integral mode      SCFMode         .... Direct
   Integral package                     .... SHARK and LIBINT hybrid scheme
 Reset frequency        DirectResetFreq ....    20
 Integral Threshold     Thresh          ....  2.500e-11 Eh
 Primitive CutOff       TCut            ....  2.500e-12 Eh

Convergence Tolerance:
 Convergence Check Mode ConvCheckMode   .... Total+1el-Energy
 Convergence forced     ConvForced      .... 0
 Energy Change          TolE            ....  1.000e-08 Eh
 1-El. energy change                    ....  1.000e-05 Eh
 Orbital Gradient       TolG            ....  1.000e-05
 Orbital Rotation angle TolX            ....  1.000e-05
 DIIS Error             TolErr          ....  5.000e-07


Diagonalization of the overlap matrix:
Smallest eigenvalue                        ... 5.697e-04
Time for diagonalization                   ...    0.001 sec
Threshold for overlap eigenvalues          ... 1.000e-08
Number of eigenvalues below threshold      ... 0
Time for construction of square roots      ...    0.001 sec
Total time needed                          ...    0.003 sec

Time for model grid setup =    0.022 sec

------------------------------
INITIAL GUESS: MODEL POTENTIAL
------------------------------
Loading Hartree-Fock densities                     ... done
Calculating cut-offs                               ... done
Initializing the effective Hamiltonian             ... done
Setting up the integral package (SHARK)            ... done
Starting the Coulomb interaction                   ... done (   0.0 sec)
Reading the grid                                   ... done
Mapping shells                                     ... done
Starting the XC term evaluation                    ... done (   0.0 sec)
  promolecular density results
     # of electrons  =     23.997045249
     EX              =    -19.523870545
     EC              =     -0.779686186
     EX+EC           =    -20.303556732
Transforming the Hamiltonian                       ... done (   0.0 sec)
Diagonalizing the Hamiltonian                      ... done (   0.0 sec)
Back transforming the eigenvectors                 ... done (   0.0 sec)
Now organizing SCF variables                       ... done
                      ------------------
                      INITIAL GUESS DONE (   0.1 sec)
                      ------------------
-------------------
DFT GRID GENERATION
-------------------

General Integration Accuracy     IntAcc      ... 4.388
Radial Grid Type                 RadialGrid  ... OptM3 with GC (2021)
Angular Grid (max. ang.)         AngularGrid ... 4 (Lebedev-302)
Angular grid pruning method      GridPruning ... 4 (adaptive)
Weight generation scheme         WeightScheme... Becke
Basis function cutoff            BFCut       ... 1.0000e-11
Integration weight cutoff        WCut        ... 1.0000e-14
Angular grids for H and He will be reduced by one unit
Partially contracted basis set               ... off
Rotationally invariant grid construction     ... off

Total number of grid points                  ...    31320
Total number of batches                      ...      493
Average number of points per batch           ...       63
Average number of grid points per atom       ...     4474
Time for grid setup =    0.109 sec

--------------------
COSX GRID GENERATION
--------------------

GRIDX 1
-------
General Integration Accuracy     IntAcc      ... 3.816
Radial Grid Type                 RadialGrid  ... OptM3 with GC (2021)
Angular Grid (max. ang.)         AngularGrid ... 1 (Lebedev-50)
Angular grid pruning method      GridPruning ... 4 (adaptive)
Weight generation scheme         WeightScheme... Becke
Basis function cutoff            BFCut       ... 1.0000e-11
Integration weight cutoff        WCut        ... 1.0000e-14
Angular grids for H and He will be reduced by one unit
Partially contracted basis set               ... on
Rotationally invariant grid construction     ... off

Total number of grid points                  ...     4036
Total number of batches                      ...       68
Average number of points per batch           ...       59
Average number of grid points per atom       ...      577
UseSFitting                                  ... on

GRIDX 2
-------
General Integration Accuracy     IntAcc      ... 4.020
Radial Grid Type                 RadialGrid  ... OptM3 with GC (2021)
Angular Grid (max. ang.)         AngularGrid ... 2 (Lebedev-110)
Angular grid pruning method      GridPruning ... 4 (adaptive)
Weight generation scheme         WeightScheme... Becke
Basis function cutoff            BFCut       ... 1.0000e-11
Integration weight cutoff        WCut        ... 1.0000e-14
Angular grids for H and He will be reduced by one unit
Partially contracted basis set               ... on
Rotationally invariant grid construction     ... off

Total number of grid points                  ...     8711
Total number of batches                      ...      140
Average number of points per batch           ...       62
Average number of grid points per atom       ...     1244
UseSFitting                                  ... on

GRIDX 3
-------
General Integration Accuracy     IntAcc      ... 4.338
Radial Grid Type                 RadialGrid  ... OptM3 with GC (2021)
Angular Grid (max. ang.)         AngularGrid ... 3 (Lebedev-194)
Angular grid pruning method      GridPruning ... 4 (adaptive)
Weight generation scheme         WeightScheme... Becke
Basis function cutoff            BFCut       ... 1.0000e-11
Integration weight cutoff        WCut        ... 1.0000e-14
Angular grids for H and He will be reduced by one unit
Partially contracted basis set               ... on
Rotationally invariant grid construction     ... off

Total number of grid points                  ...    19277
Total number of batches                      ...      306
Average number of points per batch           ...       62
Average number of grid points per atom       ...     2754
UseSFitting                                  ... on

Time for X-Grid setup             =    0.073 sec

--------------
SCF ITERATIONS
--------------
ITER       Energy         Delta-E        Max-DP      RMS-DP      [F,P]     Damp
               ***  Starting incremental Fock matrix formation  ***
  0   -153.6126141533   0.000000000000 0.03205096  0.00107580  0.1689740 0.7000
  1   -153.6385426506  -0.025928497364 0.01743099  0.00079160  0.0711962 0.7000
                               ***Turning on DIIS***
  2   -153.6492764882  -0.010733837506 0.02392485  0.00135366  0.0303449 0.0000
  3   -153.6668030434  -0.017526555251 0.01357470  0.00059198  0.0384125 0.0000
  4   -153.6700561308  -0.003253087437 0.00359379  0.00015986  0.0078595 0.0000
  5   -153.6702212739  -0.000165143075 0.00126283  0.00005426  0.0034341 0.0000
                      *** Initiating the SOSCF procedure ***
                           *** Shutting down DIIS ***
                      *** Re-Reading the Fockian *** 
                      *** Removing any level shift *** 
ITER      Energy       Delta-E        Grad      Rot      Max-DP    RMS-DP
  6   -153.67024089  -0.0000196114  0.000130  0.000130  0.000658  0.000025
               *** Restarting incremental Fock matrix formation ***
  7   -153.67023025   0.0000106336  0.000042  0.000059  0.000083  0.000003
  8   -153.67023024   0.0000000147  0.000070  0.000036  0.000053  0.000002
  9   -153.67023027  -0.0000000371  0.000007  0.000012  0.000012  0.000001
 10   -153.67023027   0.0000000005  0.000009  0.000007  0.000007  0.000000
                 **** Energy Check signals convergence ****
              ***Rediagonalizing the Fockian in SOSCF/NRSCF***

               *****************************************************
               *                     SUCCESS                       *
               *           SCF CONVERGED AFTER  11 CYCLES          *
               *****************************************************

Old exchange energy                            =     -4.987597258 Eh
New exchange energy                            =     -4.987599507 Eh
Exchange energy change after final integration =     -0.000002249 Eh
Total energy after final integration           =   -153.670232527 Eh
Final COS-X integration done in                =     0.250 sec

----------------
TOTAL SCF ENERGY
----------------

Total Energy       :         -153.67023253 Eh           -4181.57961 eV

Components:
Nuclear Repulsion  :           74.43708018 Eh            2025.53593 eV
Electronic Energy  :         -228.10731270 Eh           -6207.11554 eV
One Electron Energy:         -355.58169692 Eh           -9675.86988 eV
Two Electron Energy:          127.47438422 Eh            3468.75434 eV
Max COSX asymmetry :            0.00000352 Eh               0.00010 eV

Virial components:
Potential Energy   :         -306.48882200 Eh           -8339.98484 eV
Kinetic Energy     :          152.81858947 Eh            4158.40523 eV
Virial Ratio       :            2.00557290


DFT components:
N(Alpha)           :       12.000005288423 electrons
N(Beta)            :       12.000005288423 electrons
N(Total)           :       24.000010576847 electrons
E(X)               :      -14.936022439516 Eh       
E(C)               :       -0.788538153597 Eh       
E(XC)              :      -15.724560593114 Eh       
DFET-embed. en.    :        0.000000000000 Eh       

---------------
SCF CONVERGENCE
---------------

  Last Energy change         ...   -3.6978e-09  Tolerance :   1.0000e-08
  Last MAX-Density change    ...    5.5511e-16  Tolerance :   1.0000e-07
  Last RMS-Density change    ...    1.9271e-17  Tolerance :   5.0000e-09
  Last Orbital Gradient      ...    1.7391e-07  Tolerance :   1.0000e-05
  Last Orbital Rotation      ...    2.1861e-07  Tolerance :   1.0000e-05

             **** THE GBW FILE WAS UPDATED (ox.gbw) ****
             **** DENSITY ox.scfp WAS UPDATED ****
             **** ENERGY FILE WAS UPDATED (ox.en.tmp) ****
             **** THE GBW FILE WAS UPDATED (ox.gbw) ****
             **** DENSITY ox.scfp WAS UPDATED ****
----------------
ORBITAL ENERGIES
----------------

  NO   OCC          E(Eh)            E(eV) 
   0   2.0000     -19.229870      -523.2714 
   1   2.0000     -10.279756      -279.7264 
   2   2.0000     -10.279510      -279.7197 
   3   2.0000      -1.102368       -29.9969 
   4   2.0000      -0.694625       -18.9017 
   5   2.0000      -0.656323       -17.8594 
   6   2.0000      -0.525340       -14.2952 
   7   2.0000      -0.495796       -13.4913 
   8   2.0000      -0.427303       -11.6275 
   9   2.0000      -0.401932       -10.9371 
  10   2.0000      -0.314932        -8.5697 
  11   2.0000      -0.295282        -8.0350 
  12   0.0000       0.060584         1.6486 
  13   0.0000       0.073495         1.9999 
  14   0.0000       0.082798         2.2530 
  15   0.0000       0.101603         2.7647 
  16   0.0000       0.102978         2.8022 
  17   0.0000       0.153910         4.1881 
  18   0.0000       0.193048         5.2531 
  19   0.0000       0.208588         5.6760 
  20   0.0000       0.266218         7.2442 
  21   0.0000       0.273464         7.4413 
  22   0.0000       0.296721         8.0742 
  23   0.0000       0.330392         8.9904 
  24   0.0000       0.371358        10.1052 
  25   0.0000       0.386261        10.5107 
  26   0.0000       0.401830        10.9344 
  27   0.0000       0.415892        11.3170 
  28   0.0000       0.447503        12.1772 
  29   0.0000       0.459525        12.5043 
  30   0.0000       0.489240        13.3129 
  31   0.0000       0.510711        13.8972 
  32   0.0000       0.528629        14.3847 
  33   0.0000       0.697765        18.9872 
  34   0.0000       0.708192        19.2709 
  35   0.0000       0.717184        19.5156 
  36   0.0000       0.823206        22.4006 
  37   0.0000       0.889261        24.1980 
  38   0.0000       0.910927        24.7876 
  39   0.0000       0.931086        25.3361 
  40   0.0000       1.010837        27.5063 
  41   0.0000       1.018227        27.7074 
  42   0.0000       1.050989        28.5989 
  43   0.0000       1.079438        29.3730 
  44   0.0000       1.134493        30.8711 
  45   0.0000       1.363162        37.0935 
  46   0.0000       1.456868        39.6434 
  47   0.0000       1.490774        40.5660 
  48   0.0000       1.496235        40.7146 
  49   0.0000       1.514441        41.2100 
  50   0.0000       1.569620        42.7115 
  51   0.0000       1.621043        44.1108 
  52   0.0000       1.668471        45.4014 
  53   0.0000       1.714102        46.6431 
  54   0.0000       1.789845        48.7042 
  55   0.0000       1.811836        49.3026 
  56   0.0000       1.844972        50.2043 
  57   0.0000       1.909656        51.9644 
  58   0.0000       1.919247        52.2254 
  59   0.0000       1.936845        52.7042 
  60   0.0000       2.109518        57.4029 
  61   0.0000       2.155088        58.6429 
  62   0.0000       2.205874        60.0249 
  63   0.0000       2.231519        60.7227 
  64   0.0000       2.234294        60.7982 
  65   0.0000       2.447988        66.6131 
  66   0.0000       2.448776        66.6346 
  67   0.0000       2.502800        68.1047 
  68   0.0000       2.525968        68.7351 
  69   0.0000       2.558995        69.6338 
  70   0.0000       2.589308        70.4587 
  71   0.0000       2.593685        70.5778 
  72   0.0000       2.675798        72.8122 
  73   0.0000       2.704252        73.5864 
  74   0.0000       2.730127        74.2905 
  75   0.0000       2.771397        75.4135 
  76   0.0000       2.874491        78.2189 
  77   0.0000       2.931727        79.7763 
  78   0.0000       2.990090        81.3645 
  79   0.0000       3.003134        81.7194 
  80   0.0000       3.085117        83.9503 
  81   0.0000       3.086546        83.9892 
  82   0.0000       3.139232        85.4228 
  83   0.0000       3.203597        87.1743 
  84   0.0000       3.286677        89.4350 
  85   0.0000       3.330556        90.6290 
  86   0.0000       3.347943        91.1021 
  87   0.0000       3.403577        92.6160 
  88   0.0000       3.554604        96.7257 
  89   0.0000       3.593272        97.7779 
  90   0.0000       3.646389        99.2233 
  91   0.0000       3.692204       100.4700 
  92   0.0000       3.844285       104.6083 
  93   0.0000       4.000909       108.8703 
  94   0.0000       4.011895       109.1692 
  95   0.0000       4.052059       110.2621 
  96   0.0000       4.286924       116.6531 
  97   0.0000       4.306610       117.1888 
  98   0.0000       4.309503       117.2675 
  99   0.0000       4.525196       123.1368 
 100   0.0000       4.691402       127.6596 
 101   0.0000       4.835113       131.5701 
 102   0.0000       5.297744       144.1590 
 103   0.0000       5.462132       148.6322 
 104   0.0000       5.706206       155.2737 
 105   0.0000       5.758466       156.6958 
 106   0.0000       5.770420       157.0211 
 107   0.0000       5.899227       160.5261 
 108   0.0000       6.044532       164.4801 
 109   0.0000       6.618059       180.0865 
 110   0.0000       6.628093       180.3596 
 111   0.0000       6.775559       184.3723 
 112   0.0000       6.954821       189.2503 
 113   0.0000       7.180864       195.4012 
 114   0.0000      22.288389       606.4979 
 115   0.0000      22.320174       607.3628 
 116   0.0000      43.861007      1193.5187 

                    ********************************
                    * MULLIKEN POPULATION ANALYSIS *
                    ********************************

-----------------------
MULLIKEN ATOMIC CHARGES
-----------------------
   0 O :   -0.302711
   1 C :   -0.081079
   2 C :   -0.081080
   3 H :    0.116217
   4 H :    0.116218
   5 H :    0.116218
   6 H :    0.116217
Sum of atomic charges:   -0.0000000

--------------------------------
MULLIKEN REDUCED ORBITAL CHARGES
--------------------------------
  0 O s       :     3.852458  s :     3.852458
      pz      :     1.835638  p :     4.404694
      px      :     1.291385
      py      :     1.277671
      dz2     :     0.005825  d :     0.043420
      dxz     :     0.002561
      dyz     :     0.006480
      dx2y2   :     0.012431
      dxy     :     0.016123
      f0      :     0.000254  f :     0.002139
      f+1     :     0.000216
      f-1     :     0.000459
      f+2     :     0.000069
      f-2     :     0.000200
      f+3     :     0.000346
      f-3     :     0.000596
  1 C s       :     3.232601  s :     3.232601
      pz      :     1.038686  p :     2.730251
      px      :     0.902891
      py      :     0.788674
      dz2     :     0.006054  d :     0.107023
      dxz     :     0.024289
      dyz     :     0.030385
      dx2y2   :     0.026870
      dxy     :     0.019425
      f0      :     0.001463  f :     0.011204
      f+1     :     0.001372
      f-1     :     0.000682
      f+2     :     0.000974
      f-2     :     0.001751
      f+3     :     0.002253
      f-3     :     0.002709
  2 C s       :     3.232602  s :     3.232602
      pz      :     1.038685  p :     2.730251
      px      :     0.902891
      py      :     0.788674
      dz2     :     0.006054  d :     0.107023
      dxz     :     0.024289
      dyz     :     0.030385
      dx2y2   :     0.026870
      dxy     :     0.019425
      f0      :     0.001463  f :     0.011204
      f+1     :     0.001372
      f-1     :     0.000682
      f+2     :     0.000974
      f-2     :     0.001751
      f+3     :     0.002253
      f-3     :     0.002709
  3 H s       :     0.862400  s :     0.862400
      pz      :     0.010771  p :     0.021382
      px      :     0.006354
      py      :     0.004257
  4 H s       :     0.862400  s :     0.862400
      pz      :     0.010771  p :     0.021382
      px      :     0.006354
      py      :     0.004257
  5 H s       :     0.862400  s :     0.862400
      pz      :     0.010771  p :     0.021382
      px      :     0.006354
      py      :     0.004257
  6 H s       :     0.862400  s :     0.862400
      pz      :     0.010771  p :     0.021382
      px      :     0.006354
      py      :     0.004257


                     *******************************
                     * LOEWDIN POPULATION ANALYSIS *
                     *******************************

----------------------
LOEWDIN ATOMIC CHARGES
----------------------
   0 O :    0.124148
   1 C :   -0.289730
   2 C :   -0.289730
   3 H :    0.113828
   4 H :    0.113828
   5 H :    0.113828
   6 H :    0.113828

-------------------------------
LOEWDIN REDUCED ORBITAL CHARGES
-------------------------------
  0 O s       :     3.383207  s :     3.383207
      pz      :     1.719633  p :     4.390169
      px      :     1.283781
      py      :     1.386755
      dz2     :     0.011637  d :     0.095789
      dxz     :     0.008221
      dyz     :     0.014248
      dx2y2   :     0.034093
      dxy     :     0.027590
      f0      :     0.000607  f :     0.006687
      f+1     :     0.000290
      f-1     :     0.000866
      f+2     :     0.000130
      f-2     :     0.000958
      f+3     :     0.001232
      f-3     :     0.002603
  1 C s       :     2.838075  s :     2.838075
      pz      :     1.061677  p :     2.931510
      px      :     1.017064
      py      :     0.852769
      dz2     :     0.052565  d :     0.452882
      dxz     :     0.117734
      dyz     :     0.089286
      dx2y2   :     0.100801
      dxy     :     0.092495
      f0      :     0.009270  f :     0.067263
      f+1     :     0.005440
      f-1     :     0.005496
      f+2     :     0.006229
      f-2     :     0.007586
      f+3     :     0.015115
      f-3     :     0.018125
  2 C s       :     2.838075  s :     2.838075
      pz      :     1.061677  p :     2.931510
      px      :     1.017064
      py      :     0.852769
      dz2     :     0.052565  d :     0.452882
      dxz     :     0.117734
      dyz     :     0.089286
      dx2y2   :     0.100801
      dxy     :     0.092495
      f0      :     0.009270  f :     0.067263
      f+1     :     0.005440
      f-1     :     0.005496
      f+2     :     0.006229
      f-2     :     0.007586
      f+3     :     0.015115
      f-3     :     0.018125
  3 H s       :     0.823724  s :     0.823724
      pz      :     0.032585  p :     0.062448
      px      :     0.017201
      py      :     0.012661
  4 H s       :     0.823724  s :     0.823724
      pz      :     0.032585  p :     0.062448
      px      :     0.017201
      py      :     0.012661
  5 H s       :     0.823724  s :     0.823724
      pz      :     0.032585  p :     0.062448
      px      :     0.017201
      py      :     0.012661
  6 H s       :     0.823724  s :     0.823724
      pz      :     0.032585  p :     0.062448
      px      :     0.017201
      py      :     0.012661


                      *****************************
                      * MAYER POPULATION ANALYSIS *
                      *****************************

  NA   - Mulliken gross atomic population
  ZA   - Total nuclear charge
  QA   - Mulliken gross atomic charge
  VA   - Mayer's total valence
  BVA  - Mayer's bonded valence
  FA   - Mayer's free valence

  ATOM       NA         ZA         QA         VA         BVA        FA
  0 O      8.3027     8.0000    -0.3027     2.0138     2.0138    -0.0000
  1 C      6.0811     6.0000    -0.0811     3.9584     3.9584    -0.0000
  2 C      6.0811     6.0000    -0.0811     3.9584     3.9584    -0.0000
  3 H      0.8838     1.0000     0.1162     0.9600     0.9600    -0.0000
  4 H      0.8838     1.0000     0.1162     0.9600     0.9600    -0.0000
  5 H      0.8838     1.0000     0.1162     0.9600     0.9600    -0.0000
  6 H      0.8838     1.0000     0.1162     0.9600     0.9600    -0.0000

  Mayer bond orders larger than 0.100000
B(  0-O ,  1-C ) :   0.9931 B(  0-O ,  2-C ) :   0.9931 B(  1-C ,  2-C ) :   1.0495 
B(  1-C ,  3-H ) :   0.9527 B(  1-C ,  4-H ) :   0.9527 B(  2-C ,  5-H ) :   0.9527 
B(  2-C ,  6-H ) :   0.9527 

-------
TIMINGS
-------

Total SCF time: 0 days 0 hours 0 min 2 sec 

Total time                  ....       2.593 sec
Sum of individual times     ....       2.280 sec  ( 88.0%)

Fock matrix formation       ....       2.003 sec  ( 77.3%)
  Split-RI-J                ....       0.227 sec  ( 11.3% of F)
  Chain of spheres X        ....       1.368 sec  ( 68.3% of F)
  XC integration            ....       0.385 sec  ( 19.2% of F)
    Basis function eval.    ....       0.102 sec  ( 26.5% of XC)
    Density eval.           ....       0.076 sec  ( 19.8% of XC)
    XC-Functional eval.     ....       0.022 sec  (  5.6% of XC)
    XC-Potential eval.      ....       0.136 sec  ( 35.3% of XC)
Diagonalization             ....       0.015 sec  (  0.6%)
Density matrix formation    ....       0.001 sec  (  0.0%)
Population analysis         ....       0.002 sec  (  0.1%)
Initial guess               ....       0.031 sec  (  1.2%)
Orbital Transformation      ....       0.000 sec  (  0.0%)
Orbital Orthonormalization  ....       0.000 sec  (  0.0%)
DIIS solution               ....       0.013 sec  (  0.5%)
SOSCF solution              ....       0.011 sec  (  0.4%)
Grid generation             ....       0.204 sec  (  7.9%)

Maximum memory used throughout the entire SCF-calculation: 61.1 MB


-------------------------------------------------------------------------------
                          DFT DISPERSION CORRECTION                            
                                                                               
                              DFTD3 V3.1  Rev 1                                
                          USING Becke-Johnson damping                          
-------------------------------------------------------------------------------
The PBE0 functional is recognized
Active option DFTDOPT                   ...         4   

molecular C6(AA) [au] = 350.882689 


            DFT-D V3
 parameters
 s6 scaling factor         :     1.0000 
 a1 scaling factor         :     0.4145 
 s8 scaling factor         :     1.2177 
 a2 scaling factor         :     4.8593 
 ad hoc parameters k1-k3   :    16.0000     1.3333    -4.0000 

 Edisp/kcal,au: -1.505991217198  -0.002399949513 
 E6   /kcal   :  -0.986988907 
 E8   /kcal   :  -0.519002310 
 % E8         :  34.462505775 

-------------------------   ----------------
Dispersion correction           -0.002399950
-------------------------   ----------------


-------------------------   --------------------
FINAL SINGLE POINT ENERGY      -153.672632476266
-------------------------   --------------------



           ************************************************************
           *        Program running with 8 parallel MPI-processes     *
           *              working on a common directory               *
           ************************************************************
------------------------------------------------------------------------------
                         ORCA SCF GRADIENT CALCULATION
------------------------------------------------------------------------------

 ... reading COSX grid (gridx3)
Gradient of the Kohn-Sham DFT energy:
Kohn-Sham wavefunction type      ... RKS
Hartree-Fock exchange scaling    ...    0.250
Number of operators              ...    1
Number of atoms                  ...    7
Basis set dimensions             ...  117
Integral neglect threshold       ... 2.5e-11
Integral primitive cutoff        ... 2.5e-12
SHARK Integral package           ... ON

Nuc. rep. gradient       (SHARK) ... done (  0.0 sec)
HCore & Overlap gradient (SHARK) ... done (  0.0 sec)
RI-J gradient            (SHARK) ... done (  0.2 sec)
COSX-gradient                    ... done (  0.3 sec)
Exchange-correlation gradient    ... done
Dispersion correction            ... done

------------------
CARTESIAN GRADIENT
------------------

   1   O   :   -0.000000048    0.015092198    0.000000072
   2   C   :   -0.042969395    0.004198731   -0.000000018
   3   C   :    0.042969382    0.004198739    0.000000009
   4   H   :   -0.000927045   -0.005936788    0.000962982
   5   H   :   -0.000927037   -0.005936811   -0.000962977
   6   H   :    0.000927037   -0.005936794   -0.000962977
   7   H   :    0.000927042   -0.005936820    0.000962973

Difference to translation invariance:
           :   -0.0000000649   -0.0002575452    0.0000000629

Difference to rotation invariance:
           :    0.0000001193   -0.0000000212    0.0000000307

Norm of the cartesian gradient     ...    0.0640616837
RMS gradient                       ...    0.0139794055
MAX gradient                       ...    0.0429693950

-------
TIMINGS
-------

Total SCF gradient time            ...        0.883 sec

One electron gradient       ....       0.039 sec  (  4.5%)
RI-J Coulomb gradient       ....       0.242 sec  ( 27.4%)
COSX gradient               ....       0.303 sec  ( 34.3%)
XC gradient                 ....       0.150 sec  ( 17.0%)

Maximum memory used throughout the entire SCFGRAD-calculation: 35.9 MB

                            ***************************************
                            *     ORCA property calculations      *
                            ***************************************

                                    ---------------------
                                    Active property flags
                                    ---------------------
   (+) Dipole Moment


------------------------------------------------------------------------------
                       ORCA ELECTRIC PROPERTIES CALCULATION
------------------------------------------------------------------------------

Dipole Moment Calculation                       ... on
Quadrupole Moment Calculation                   ... off
Polarizability Calculation                      ... off
GBWName                                         ... ox.gbw
Electron density                                ... ox.scfp
The origin for moment calculation is the CENTER OF MASS  = ( 0.000000, -0.000035  0.000000)

-------------
DIPOLE MOMENT
-------------
                                X             Y             Z
Electronic contribution:      0.00000       1.84340      -0.00000
Nuclear contribution   :      0.00000      -2.58581       0.00000
                        -----------------------------------------
Total Dipole Moment    :      0.00000      -0.74241      -0.00000
                        -----------------------------------------
Magnitude (a.u.)       :      0.74241
Magnitude (Debye)      :      1.88705



--------------------
Rotational spectrum 
--------------------
 
Rotational constants in cm-1:     0.862174     0.701614     0.459236 
Rotational constants in MHz : 25847.325392 21033.864786 13767.562271 

 Dipole components along the rotational axes: 
x,y,z [a.u.] :     0.000000    -0.742408    -0.000000 
x,y,z [Debye]:     0.000000    -1.887050    -0.000000 

 

Timings for individual modules:

Sum of individual times         ...        4.387 sec (=   0.073 min)
GTO integral calculation        ...        0.467 sec (=   0.008 min)  10.6 %
SCF iterations                  ...        2.806 sec (=   0.047 min)  63.9 %
SCF Gradient evaluation         ...        1.115 sec (=   0.019 min)  25.4 %
                             ****ORCA TERMINATED NORMALLY****
TOTAL RUN TIME: 0 days 0 hours 0 minutes 4 seconds 811 msec
