7
Properties=species:S:1:pos:R:3 C2H4O=T energy=-4175.278570059272 dipole="-0.0 0.36428559175214825 -0.0" pbc="F F F"
O       -1.77109741       0.57280526       0.01597122
C       -1.14798966      -0.70917642       0.09749930
C        1.00653187      -0.68249093       0.01122714
H       -1.66379969      -0.42596639       0.86014966
H       -1.58506158      -0.42879399      -0.91426861
H        1.71291579      -0.46722811      -0.88646981
H        1.69288613      -0.45666612       0.94400326
7
Properties=species:S:1:pos:R:3 C2H4O=T energy=-4175.278570059272 dipole="-0.0 0.36428559175214825 -0.0" pbc="F F F"
O       -1.80805234       0.50109999       0.03847072
C       -1.08297017      -0.62247116       0.02914858
C        1.08978805      -0.67134724      -0.02134955
H       -1.71091222      -0.41435818       0.80645245
H       -1.75844312      -0.40715908      -0.90364974
H        1.63352029      -0.48520796      -0.87782546
H        1.65808864      -0.41258313       0.81202961
7
Properties=species:S:1:pos:R:3 C2H4O=T energy=-4175.278570059272 dipole="-0.0 0.36428559175214825 -0.0" pbc="F F F"
O       -1.79725727       0.47200947      -0.00046887
C       -1.02306107      -0.59695013      -0.03887190
C        1.05992005      -0.65537377      -0.10793110
H       -1.57940184      -0.40740743       0.85085811
H       -1.69257530      -0.45582764      -0.87938690
H        1.59481578      -0.51196298      -0.93536328
H        1.71822576      -0.53566919       0.92257648
7
Properties=species:S:1:pos:R:3 C2H4O=T energy=-4175.278570059272 dipole="-0.0 0.36428559175214825 -0.0" pbc="F F F"
O       -1.70789676       0.64631393       0.03423341
C       -1.05112379      -0.52426818       0.06905765
C        1.06977906      -0.63692568       0.00161806
H       -1.61166911      -0.46230844       0.91091234
H       -1.65408175      -0.50262626      -0.87252180
H        1.63058469      -0.44525477      -0.85598910
H        1.65776700      -0.38354876       0.97626603
7
Properties=species:S:1:pos:R:3 C2H4O=T energy=-4175.278570059272 dipole="-0.0 0.36428559175214825 -0.0" pbc="F F F"
O       -1.76667337       0.50769423       0.01572411
C       -1.09487416      -0.62007159      -0.06262248
C        1.03535436      -0.65662656      -0.02142265
H       -1.70766506      -0.42474759       0.92114773
H       -1.66225315      -0.40059798      -0.88112908
H        1.69769451      -0.39613463      -0.87699519
H        1.74915390      -0.43636852       0.92020562
7
Properties=species:S:1:pos:R:3 C2H4O=T energy=-4175.278570059272 dipole="-0.0 0.36428559175214825 -0.0" pbc="F F F"
O       -1.78989689       0.61286259      -0.02555287
C       -1.02533839      -0.60124570      -0.00394090
C        1.02074133      -0.69659704      -0.03003330
H       -1.63128032      -0.48506719       0.90132022
H       -1.68663056      -0.49071860      -0.91328676
H        1.68066358      -0.47224836      -0.91796627
H        1.68252874      -0.38238061       0.92426078
7
Properties=species:S:1:pos:R:3 C2H4O=T energy=-4175.278570059272 dipole="-0.0 0.36428559175214825 -0.0" pbc="F F F"
O       -1.70303099       0.56065336       0.01660588
C       -1.04950560      -0.72374493       0.06448414
C        1.08957387      -0.57618327      -0.01620629
H       -1.61368316      -0.40778639       0.89997355
H       -1.63092385      -0.39994728      -0.93558447
H        1.58465165      -0.40303665      -0.92430620
H        1.57763683      -0.47497902       0.80847684
7
Properties=species:S:1:pos:R:3 C2H4O=T energy=-4175.278570059272 dipole="-0.0 0.36428559175214825 -0.0" pbc="F F F"
O       -1.71998246       0.58729616      -0.00865921
C       -1.05906207      -0.67658334       0.03768225
C        1.00836013      -0.70980040       0.04739060
H       -1.69407470      -0.43408740       0.86231326
H       -1.65860676      -0.54040710      -0.91379646
H        1.56163268      -0.47339566      -0.82249239
H        1.65351480      -0.49623863       0.87041071
7
Properties=species:S:1:pos:R:3 C2H4O=T energy=-4175.278570059272 dipole="-0.0 0.36428559175214825 -0.0" pbc="F F F"
O       -1.77974389       0.50740212      -0.07636821
C       -1.09391620      -0.55678909       0.06690673
C        1.10268696      -0.56172999      -0.06229105
H       -1.64949236      -0.47939177       1.05232776
H       -1.59930131      -0.46735247      -0.97876724
H        1.70371068      -0.50812934      -0.83620918
H        1.64066925      -0.48917956       0.98280301
7
Properties=species:S:1:pos:R:3 C2H4O=T energy=-4175.278570059272 dipole="-0.0 0.36428559175214825 -0.0" pbc="F F F"
O       -1.66260800       0.55361279       0.04515480
C       -0.98642628      -0.75053633       0.00968239
C        1.09037158      -0.62365515       0.01503707
H       -1.62988741      -0.43476012       0.82132890
H       -1.58065068      -0.42990580      -0.92891812
H        1.70098480      -0.44871396      -0.90108168
H        1.63615792      -0.42131619       0.98731302
