7
Properties=species:S:1:pos:R:3 C2H4O=T energy=-4175.278570059272 dipole="-0.0 0.36428559175214825 -0.0" pbc="F F F"
O       -0.53171757       0.61738036       0.07163601
C       -1.05035570      -0.67633318       0.04435841
C        1.07770179      -0.67213023       0.00078503
H       -1.75636505      -0.39873977       0.94405448
H       -1.59656337      -0.55730457      -0.91116153
H        1.64433577      -0.43596910      -0.88000242
H        1.71028892      -0.53358652       0.88432417
7
Properties=species:S:1:pos:R:3 C2H4O=T energy=-4175.278570059272 dipole="-0.0 0.36428559175214825 -0.0" pbc="F F F"
O       -0.58808779       0.68660021       0.02767260
C       -0.96881553      -0.66376900       0.03377796
C        0.94387101      -0.64945948       0.05294867
H       -1.66412281      -0.43936968       0.94683611
H       -1.59193267      -0.41305597      -0.90056224
H        1.65046550      -0.47238151      -0.85237328
H        1.76377904      -0.45243126       0.86613419
7
Properties=species:S:1:pos:R:3 C2H4O=T energy=-4175.278570059272 dipole="-0.0 0.36428559175214825 -0.0" pbc="F F F"
O       -0.55348223       0.57318026       0.01239027
C       -1.07958095      -0.64714348       0.00091472
C        1.07249307      -0.62954062       0.04205065
H       -1.71652130      -0.52634022       0.88941127
H       -1.67164170      -0.46347281      -0.87675664
H        1.64245420      -0.42795485      -0.81717408
H        1.59551919      -0.45975848       0.90985493
7
Properties=species:S:1:pos:R:3 C2H4O=T energy=-4175.278570059272 dipole="-0.0 0.36428559175214825 -0.0" pbc="F F F"
O       -0.56571426       0.72861918      -0.12002202
C       -0.93319293      -0.69743530       0.01059443
C        1.06995840      -0.67957581       0.02310320
H       -1.60901939      -0.43006616       0.84814446
H       -1.54383743      -0.44489370      -0.95209062
H        1.67582882      -0.45426614      -0.87123740
H        1.46605518      -0.39018596       0.90208802
7
Properties=species:S:1:pos:R:3 C2H4O=T energy=-4175.278570059272 dipole="-0.0 0.36428559175214825 -0.0" pbc="F F F"
O       -0.54706285       0.65542436       0.03836910
C       -0.98547712      -0.62676195       0.06959957
C        1.03871449      -0.66030228      -0.05139232
H       -1.67346671      -0.41541186       0.89035983
H       -1.66146788      -0.42982742      -0.94790710
H        1.61863578      -0.44168150      -0.86613034
H        1.66941060      -0.44197646       0.91867090
7
Properties=species:S:1:pos:R:3 C2H4O=T energy=-4175.278570059272 dipole="-0.0 0.36428559175214825 -0.0" pbc="F F F"
O       -0.48711525       0.63787388      -0.02340022
C       -0.97349439      -0.70435915       0.04377404
C        0.94918660      -0.66284231       0.03745840
H       -1.65442744      -0.46535033       0.92848998
H       -1.73515453      -0.45388825      -0.87471545
H        1.63180825      -0.48712710      -0.92860122
H        1.66604389      -0.54139188       0.91414202
7
Properties=species:S:1:pos:R:3 C2H4O=T energy=-4175.278570059272 dipole="-0.0 0.36428559175214825 -0.0" pbc="F F F"
O       -0.57925553       0.66197833       0.03470582
C       -1.00079163      -0.62832594       0.00756159
C        1.07552873      -0.54562733       0.03198185
H       -1.69233224      -0.56050484       0.99096952
H       -1.73099702      -0.39572264      -0.85458589
H        1.62523931      -0.42111366      -0.93697433
H        1.70307163      -0.48245805       0.92950188
7
Properties=species:S:1:pos:R:3 C2H4O=T energy=-4175.278570059272 dipole="-0.0 0.36428559175214825 -0.0" pbc="F F F"
O       -0.50607992       0.67084272       0.11828909
C       -1.00991596      -0.60047400      -0.02370078
C        1.03188758      -0.57241419      -0.04024148
H       -1.75041181      -0.47291668       0.85012121
H       -1.62751968      -0.42940264      -0.93164918
H        1.62821966      -0.50205171      -0.93744043
H        1.65553028      -0.42480245       0.90378121
7
Properties=species:S:1:pos:R:3 C2H4O=T energy=-4175.278570059272 dipole="-0.0 0.36428559175214825 -0.0" pbc="F F F"
O       -0.50766541       0.72633602      -0.00362976
C       -1.06225326      -0.68721137      -0.06195332
C        1.04170653      -0.65145500       0.10618480
H       -1.63811713      -0.52671315       0.96560648
H       -1.75162233      -0.52361846      -0.87627943
H        1.64349224      -0.39262202      -0.96693535
H        1.58445482      -0.48583439       0.87373125
7
Properties=species:S:1:pos:R:3 C2H4O=T energy=-4175.278570059272 dipole="-0.0 0.36428559175214825 -0.0" pbc="F F F"
O       -0.62657906       0.68739888      -0.02964364
C       -1.10837893      -0.68513277       0.05521784
C        1.01314489      -0.64836090       0.04445808
H       -1.62981196      -0.50881851       0.87847911
H       -1.67522923      -0.44839191      -0.92303043
H        1.69711151      -0.49581621      -0.92068839
H        1.64782491      -0.36070327       0.93385472
