7
Properties=species:S:1:pos:R:3 C2H4O=T energy=-4181.764945393823 dipole="-0.0 -0.385055797266779 -0.0" pbc="F F F"
O       -1.26505851       0.91322937       0.05513415
C       -0.75449848      -0.46029148      -0.08085030
C        0.71531382      -0.39974278      -0.03134964
H       -1.27712029      -0.63390613       1.02239907
H       -1.28690072      -0.63387854      -0.86957009
H        1.25599737      -0.62326698      -0.86995265
H        1.29824162      -0.76232560       0.96297408
7
Properties=species:S:1:pos:R:3 C2H4O=T energy=-4181.764945393823 dipole="-0.0 -0.385055797266779 -0.0" pbc="F F F"
O       -1.16715372       0.89707662       0.00139108
C       -0.83825247      -0.44028330      -0.03407278
C        0.60776999      -0.42596180      -0.03386673
H       -1.32083365      -0.65404001       0.89286415
H       -1.24064680      -0.71135531      -0.87624911
H        1.23660989      -0.64977256      -0.94172328
H        1.31932902      -0.73633915       0.91320049
7
Properties=species:S:1:pos:R:3 C2H4O=T energy=-4181.764945393823 dipole="-0.0 -0.385055797266779 -0.0" pbc="F F F"
O       -1.24077747       0.88107000       0.04436551
C       -0.67115725      -0.44123214      -0.05807602
C        0.71965796      -0.42367129      -0.10004928
H       -1.33121085      -0.67930222       0.91602790
H       -1.29421513      -0.73055760      -0.83848650
H        1.27269925      -0.70187019      -0.90341981
H        1.36412501      -0.66796357       0.84324164
7
Properties=species:S:1:pos:R:3 C2H4O=T energy=-4181.764945393823 dipole="-0.0 -0.385055797266779 -0.0" pbc="F F F"
O       -1.21665953       0.89493085      -0.12563072
C       -0.59375396      -0.41783796       0.01693909
C        0.76333961      -0.36200306      -0.02206336
H       -1.24809824      -0.63645593       0.92431479
H       -1.26971235      -0.73206458      -0.87463842
H        1.26412595      -0.71087604      -0.89499685
H        1.18818241      -0.56805628       0.98291745
7
Properties=species:S:1:pos:R:3 C2H4O=T energy=-4181.764945393823 dipole="-0.0 -0.385055797266779 -0.0" pbc="F F F"
O       -1.16116861       0.93611557       0.04857863
C       -0.80820915      -0.47254958      -0.04394865
C        0.67211354      -0.42217015       0.07551129
H       -1.21778625      -0.63630021       0.98082824
H       -1.25606015      -0.66780945      -0.92871031
H        1.28251464      -0.60216352      -0.86456228
H        1.24918876      -0.62008315       0.96815199
7
Properties=species:S:1:pos:R:3 C2H4O=T energy=-4181.764945393823 dipole="-0.0 -0.385055797266779 -0.0" pbc="F F F"
O       -1.20123234       0.98027204       0.02460767
C       -0.79321593      -0.49505041       0.04914013
C        0.71040461      -0.37082796      -0.02198802
H       -1.27639865      -0.65382284       0.89516140
H       -1.30324988      -0.66930446      -0.92106527
H        1.31058775      -0.69729873      -0.95999083
H        1.25083679      -0.69905352       0.85184530
7
Properties=species:S:1:pos:R:3 C2H4O=T energy=-4181.764945393823 dipole="-0.0 -0.385055797266779 -0.0" pbc="F F F"
O       -1.25372151       0.82930185      -0.10355990
C       -0.70568606      -0.47134046       0.06320292
C        0.80778108      -0.46981584      -0.03587804
H       -1.31846743      -0.59735107       0.97776618
H       -1.23369155      -0.70883539      -0.88500531
H        1.16627999      -0.67092589      -0.92326846
H        1.16971662      -0.54220909       0.91869546
7
Properties=species:S:1:pos:R:3 C2H4O=T energy=-4181.764945393823 dipole="-0.0 -0.385055797266779 -0.0" pbc="F F F"
O       -1.19432632       0.87821373      -0.01072923
C       -0.77261978      -0.44795107      -0.02370386
C        0.77169844      -0.39626324      -0.04594535
H       -1.24895027      -0.62384048       0.91537354
H       -1.28551257      -0.59137132      -0.93757819
H        1.21324886      -0.58341826      -0.89173679
H        1.31154842      -0.61025780       0.92230903
7
Properties=species:S:1:pos:R:3 C2H4O=T energy=-4181.764945393823 dipole="-0.0 -0.385055797266779 -0.0" pbc="F F F"
O       -1.34174894       0.84750125      -0.02326648
C       -0.76542750      -0.45821755      -0.03397195
C        0.72766113      -0.41182766      -0.02056552
H       -1.28088194      -0.63045363       0.90628970
H       -1.30664626      -0.68874247      -0.97536964
H        1.19328263      -0.69334030      -0.99336030
H        1.28873877      -0.70007091       0.98502340
7
Properties=species:S:1:pos:R:3 C2H4O=T energy=-4181.764945393823 dipole="-0.0 -0.385055797266779 -0.0" pbc="F F F"
O       -1.23541345       0.92313877       0.05666538
C       -0.73171683      -0.46629192       0.04783798
C        0.85452880      -0.48754559      -0.02987321
H       -1.38302924      -0.64134943       0.90619440
H       -1.26402803      -0.73055879      -0.92376828
H        1.30948078      -0.70756769      -0.88361787
H        1.24990323      -0.66601774       0.97405387
