7
Properties=species:S:1:pos:R:3 C2H4O=T energy=-4181.764945393823 dipole="-0.0 -0.385055797266779 -0.0" pbc="F F F"
O       -0.22103107       0.82399768       0.07163547
C       -0.74452218      -0.48304993       0.04435815
C        0.77186896      -0.47884667       0.00078482
H       -1.37595718      -0.61076902       0.96957352
H       -1.21615656      -0.76933365      -0.93668009
H        1.26392874      -0.64799819      -0.90552162
H        1.32988078      -0.74561609       0.90984385
7
Properties=species:S:1:pos:R:3 C2H4O=T energy=-4181.764945393823 dipole="-0.0 -0.385055797266779 -0.0" pbc="F F F"
O       -0.27740129       0.89321753       0.02767207
C       -0.66298201      -0.47048575       0.03377770
C        0.63803818      -0.45617592       0.05294846
H       -1.28371494      -0.65139893       0.97235515
H       -1.21152586      -0.62508505      -0.92608080
H        1.27005847      -0.68441060      -0.87789248
H        1.38337090      -0.66446083       0.89165387
7
Properties=species:S:1:pos:R:3 C2H4O=T energy=-4181.764945393823 dipole="-0.0 -0.385055797266779 -0.0" pbc="F F F"
O       -0.24279573       0.77979758       0.01238973
C       -0.77374743      -0.45386023       0.00091446
C        0.76666024      -0.43625706       0.04205044
H       -1.33611343      -0.73836947       0.91493031
H       -1.29123489      -0.67550189      -0.90227520
H        1.26204717      -0.63998394      -0.84269328
H        1.21511105      -0.67178805       0.93537461
7
Properties=species:S:1:pos:R:3 C2H4O=T energy=-4181.764945393823 dipole="-0.0 -0.385055797266779 -0.0" pbc="F F F"
O       -0.25502776       0.93523650      -0.12002256
C       -0.62735941      -0.50415205       0.01059417
C        0.76412557      -0.48629225       0.02310299
H       -1.22861152      -0.64209541       0.87366350
H       -1.16343062      -0.65692278      -0.97760918
H        1.29542179      -0.66629523      -0.89675660
H        1.08564704      -0.60221553       0.92760770
7
Properties=species:S:1:pos:R:3 C2H4O=T energy=-4181.764945393823 dipole="-0.0 -0.385055797266779 -0.0" pbc="F F F"
O       -0.23637635       0.86204168       0.03836856
C       -0.67964360      -0.43347870       0.06959931
C        0.73288166      -0.46701872      -0.05139253
H       -1.29305884      -0.62744111       0.91587887
H       -1.28106107      -0.64185650      -0.97342566
H        1.23822875      -0.65371059      -0.89164954
H        1.28900246      -0.65400603       0.94419058
7
Properties=species:S:1:pos:R:3 C2H4O=T energy=-4181.764945393823 dipole="-0.0 -0.385055797266779 -0.0" pbc="F F F"
O       -0.17642875       0.84449120      -0.02340076
C       -0.66766087      -0.51107590       0.04377378
C        0.64335377      -0.46955875       0.03745819
H       -1.27401957      -0.67737958       0.95400902
H       -1.35474772      -0.66591733      -0.90023401
H        1.25140122      -0.69915619      -0.95412042
H        1.28563575      -0.75342145       0.93966170
7
Properties=species:S:1:pos:R:3 C2H4O=T energy=-4181.764945393823 dipole="-0.0 -0.385055797266779 -0.0" pbc="F F F"
O       -0.26856902       0.86859565       0.03470528
C       -0.69495811      -0.43504269       0.00756133
C        0.76969590      -0.35234377       0.03198164
H       -1.31192437      -0.77253409       1.01648856
H       -1.35059021      -0.60775172      -0.88010445
H        1.24483228      -0.63314275      -0.96249353
H        1.32266349      -0.69448762       0.95502156
7
Properties=species:S:1:pos:R:3 C2H4O=T energy=-4181.764945393823 dipole="-0.0 -0.385055797266779 -0.0" pbc="F F F"
O       -0.19539342       0.87746004       0.11828855
C       -0.70408244      -0.40719075      -0.02370104
C        0.72605475      -0.37913063      -0.04024169
H       -1.37000394      -0.68494593       0.87564025
H       -1.24711287      -0.64143172      -0.95716774
H        1.24781263      -0.71408080      -0.96295963
H        1.27512214      -0.63683202       0.92930089
7
Properties=species:S:1:pos:R:3 C2H4O=T energy=-4181.764945393823 dipole="-0.0 -0.385055797266779 -0.0" pbc="F F F"
O       -0.19697891       0.93295334      -0.00363030
C       -0.75641974      -0.49392812      -0.06195358
C        0.73587370      -0.45817144       0.10618459
H       -1.25770926      -0.73874240       0.99112552
H       -1.37121552      -0.73564754      -0.90179799
H        1.26308521      -0.60465111      -0.99245455
H        1.20404668      -0.69786396       0.89925093
7
Properties=species:S:1:pos:R:3 C2H4O=T energy=-4181.764945393823 dipole="-0.0 -0.385055797266779 -0.0" pbc="F F F"
O       -0.31589256       0.89401620      -0.02964418
C       -0.80254541      -0.49184952       0.05521758
C        0.70731206      -0.45507734       0.04445787
H       -1.24940409      -0.72084776       0.90399815
H       -1.29482242      -0.66042099      -0.94854899
H        1.31670448      -0.70784530      -0.94620759
H        1.26741677      -0.57273284       0.95937440
