7
Properties=species:S:1:pos:R:3 C2H4O=T energy=-4181.764945393823 dipole="-0.0 -0.385055797266779 -0.0" pbc="F F F"
O       -1.47235895       0.77837709       0.01597068
C       -0.84215614      -0.51589317       0.09749904
C        0.70069904      -0.48920737       0.01122693
H       -1.28339182      -0.63799564       0.88566870
H       -1.20465477      -0.64082307      -0.93978717
H        1.33250876      -0.67925720      -0.91198901
H        1.31247799      -0.66869569       0.96952294
7
Properties=species:S:1:pos:R:3 C2H4O=T energy=-4181.764945393823 dipole="-0.0 -0.385055797266779 -0.0" pbc="F F F"
O       -1.50931387       0.70667181       0.03847018
C       -0.77713665      -0.42918791       0.02914832
C        0.78395522      -0.47806368      -0.02134976
H       -1.33050435      -0.62638743       0.83197149
H       -1.37803631      -0.61918816      -0.92916830
H        1.25311326      -0.69723705      -0.90334466
H        1.27768050      -0.62461270       0.83754929
7
Properties=species:S:1:pos:R:3 C2H4O=T energy=-4181.764945393823 dipole="-0.0 -0.385055797266779 -0.0" pbc="F F F"
O       -1.49851881       0.67758130      -0.00046941
C       -0.71722755      -0.40366688      -0.03887216
C        0.75408722      -0.46209021      -0.10793131
H       -1.19899397      -0.61943668       0.87637715
H       -1.31216849      -0.66785672      -0.90490546
H        1.21440875      -0.72399207      -0.96088248
H        1.33781762      -0.74769876       0.94809616
7
Properties=species:S:1:pos:R:3 C2H4O=T energy=-4181.764945393823 dipole="-0.0 -0.385055797266779 -0.0" pbc="F F F"
O       -1.40915829       0.85188575       0.03423286
C       -0.74529027      -0.33098493       0.06905739
C        0.76394623      -0.44364212       0.00161785
H       -1.23126124      -0.67433769       0.93643138
H       -1.27367494      -0.71465534      -0.89804036
H        1.25017766      -0.65728386      -0.88150830
H        1.27735886      -0.59557833       1.00178571
7
Properties=species:S:1:pos:R:3 C2H4O=T energy=-4181.764945393823 dipole="-0.0 -0.385055797266779 -0.0" pbc="F F F"
O       -1.46793490       0.71326606       0.01572356
C       -0.78904064      -0.42678834      -0.06262274
C        0.72952153      -0.46334300      -0.02142286
H       -1.32725719      -0.63677684       0.94666677
H       -1.28184634      -0.61262706      -0.90664764
H        1.31728748      -0.60816372      -0.90251439
H        1.36874576      -0.64839809       0.94572530
7
Properties=species:S:1:pos:R:3 C2H4O=T energy=-4181.764945393823 dipole="-0.0 -0.385055797266779 -0.0" pbc="F F F"
O       -1.49115842       0.81843441      -0.02555341
C       -0.71950487      -0.40796245      -0.00394116
C        0.71490850      -0.50331348      -0.03003351
H       -1.25087245      -0.69709644       0.92683926
H       -1.30622375      -0.70274768      -0.93880532
H        1.30025655      -0.68427745      -0.94348547
H        1.30212060      -0.59441018       0.94978046
7
Properties=species:S:1:pos:R:3 C2H4O=T energy=-4181.764945393823 dipole="-0.0 -0.385055797266779 -0.0" pbc="F F F"
O       -1.40429252       0.76622519       0.01660533
C       -0.74367208      -0.53046168       0.06448388
C        0.78374104      -0.38289971      -0.01620650
H       -1.23327529      -0.61981564       0.92549259
H       -1.25051704      -0.61197636      -0.96110303
H        1.20424462      -0.61506574      -0.94982540
H        1.19722869      -0.68700859       0.83399652
7
Properties=species:S:1:pos:R:3 C2H4O=T energy=-4181.764945393823 dipole="-0.0 -0.385055797266779 -0.0" pbc="F F F"
O       -1.42124399       0.79286798      -0.00865975
C       -0.75322855      -0.48330009       0.03768199
C        0.70252730      -0.51651684       0.04739039
H       -1.31366683      -0.64611665       0.88783230
H       -1.27819995      -0.75243618      -0.93931502
H        1.18122565      -0.68542475      -0.84801159
H        1.27310666      -0.70826820       0.89593039
7
Properties=species:S:1:pos:R:3 C2H4O=T energy=-4181.764945393823 dipole="-0.0 -0.385055797266779 -0.0" pbc="F F F"
O       -1.48100543       0.71297395      -0.07636876
C       -0.78808268      -0.36350584       0.06690647
C        0.79685413      -0.36844643      -0.06229126
H       -1.26908449      -0.69142102       1.07784680
H       -1.21889450      -0.67938155      -1.00428580
H        1.32330365      -0.72015843      -0.86172838
H        1.26026111      -0.70120913       1.00832269
7
Properties=species:S:1:pos:R:3 C2H4O=T energy=-4181.764945393823 dipole="-0.0 -0.385055797266779 -0.0" pbc="F F F"
O       -1.36386953       0.75918462       0.04515425
C       -0.68059276      -0.55725308       0.00968213
C        0.78453875      -0.43037159       0.01503686
H       -1.24947954      -0.64678937       0.84684794
H       -1.20024387      -0.64193488      -0.95443668
H        1.32057777      -0.66074305      -0.92660088
H        1.25574978      -0.63334576       1.01283270
