7
Properties=species:S:1:pos:R:3 C2H4O=T energy=-4181.764945393823 dipole="-0.0 -0.385055797266779 -0.0" pbc="F F F"
O       -0.75652838       1.07579439      -0.01704389
C       -0.76333931      -0.49137442      -0.03493508
C        0.76059996      -0.47503929      -0.11522178
H       -1.34041071      -0.66729571       0.90739920
H       -1.29954740      -0.65917627      -0.93644455
H        1.28764378      -0.59376092      -0.93040205
H        1.28881055      -0.67094846       0.99559301
7
Properties=species:S:1:pos:R:3 C2H4O=T energy=-4181.764945393823 dipole="-0.0 -0.385055797266779 -0.0" pbc="F F F"
O       -0.75196991       1.01453425      -0.05952192
C       -0.69839670      -0.42529035      -0.06285557
C        0.65619767      -0.53361307       0.05923421
H       -1.17995574      -0.68554532       0.94718046
H       -1.30147896      -0.70562795      -0.99216767
H        1.16464478      -0.62151388      -0.83733651
H        1.20649760      -0.68106665       0.91132266
7
Properties=species:S:1:pos:R:3 C2H4O=T energy=-4181.764945393823 dipole="-0.0 -0.385055797266779 -0.0" pbc="F F F"
O       -0.68299871       0.95898898       0.02679574
C       -0.75214121      -0.40134405       0.06423794
C        0.71116490      -0.43947160       0.01133425
H       -1.27878649      -0.73325120       0.91098326
H       -1.16890656      -0.69825508      -0.89699114
H        1.24081492      -0.76301644      -0.93785419
H        1.34414714      -0.67143220       0.98447940
7
Properties=species:S:1:pos:R:3 C2H4O=T energy=-4181.764945393823 dipole="-0.0 -0.385055797266779 -0.0" pbc="F F F"
O       -0.67605583       0.95051186      -0.00705078
C       -0.73439917      -0.48638970      -0.02570796
C        0.68690346      -0.42637732      -0.10484210
H       -1.28310142      -0.63830725       0.94789605
H       -1.32946698      -0.75831876      -0.95275350
H        1.35293970      -0.65564859      -0.96081704
H        1.29663931      -0.74537913       0.95696126
7
Properties=species:S:1:pos:R:3 C2H4O=T energy=-4181.764945393823 dipole="-0.0 -0.385055797266779 -0.0" pbc="F F F"
O       -0.79643149       0.98793440       0.02452518
C       -0.78121993      -0.49973588      -0.12448264
C        0.74955248      -0.41795619       0.01426737
H       -1.23246569      -0.81582620       0.89719748
H       -1.21016433      -0.69650811      -0.91019524
H        1.23592506      -0.63505238      -0.94464112
H        1.15133756      -0.63280165       0.89151583
7
Properties=species:S:1:pos:R:3 C2H4O=T energy=-4181.764945393823 dipole="-0.0 -0.385055797266779 -0.0" pbc="F F F"
O       -0.78634911       0.97119383      -0.02613588
C       -0.68337254      -0.47886049      -0.00165835
C        0.75047345      -0.43491150      -0.05156003
H       -1.26370779      -0.58659946       0.92338470
H       -1.30347822      -0.67954981      -0.93200315
H        1.24903525      -0.66670548      -0.92531270
H        1.23597634      -0.75846187       0.90044357
7
Properties=species:S:1:pos:R:3 C2H4O=T energy=-4181.764945393823 dipole="-0.0 -0.385055797266779 -0.0" pbc="F F F"
O       -0.75343891       1.00217370       0.03532799
C       -0.71434403      -0.39117131      -0.04540994
C        0.75676741      -0.45786830      -0.09281337
H       -1.20326633      -0.64518298       0.93714269
H       -1.24437230      -0.67038779      -0.81747356
H        1.24821267      -0.67512705      -0.99158797
H        1.26196045      -0.60593419       0.94146434
7
Properties=species:S:1:pos:R:3 C2H4O=T energy=-4181.764945393823 dipole="-0.0 -0.385055797266779 -0.0" pbc="F F F"
O       -0.72119249       0.99148155      -0.02401782
C       -0.73250298      -0.39848080      -0.05035881
C        0.72186458      -0.43725720      -0.01334528
H       -1.29094410      -0.75797788       0.96717335
H       -1.24529194      -0.64562828      -0.96747516
H        1.28704634      -0.65259882      -0.96455640
H        1.16798280      -0.68701284       0.97666133
7
Properties=species:S:1:pos:R:3 C2H4O=T energy=-4181.764945393823 dipole="-0.0 -0.385055797266779 -0.0" pbc="F F F"
O       -0.77006305       0.97714806       0.01220571
C       -0.73322422      -0.59572816       0.04704595
C        0.70812500      -0.48343625      -0.05396811
H       -1.26544353      -0.72980273       0.90684855
H       -1.19357257      -0.63525543      -0.97034985
H        1.27522878      -0.70048267      -0.98009521
H        1.28090802      -0.69891669       0.99871290
7
Properties=species:S:1:pos:R:3 C2H4O=T energy=-4181.764945393823 dipole="-0.0 -0.385055797266779 -0.0" pbc="F F F"
O       -0.70032814       1.01879157      -0.00756131
C       -0.72672087      -0.44630165      -0.08761410
C        0.72203044      -0.36528409       0.04308768
H       -1.32309858      -0.64963076       0.93838470
H       -1.24895824      -0.72419271      -0.95857485
H        1.12963328      -0.72434368      -0.97503842
H        1.23213091      -0.68972845       0.99737659
