7
Properties=species:S:1:pos:R:3 C2H4O=T energy=-4175.278570059272 dipole="-0.0 0.36428559175214825 -0.0" pbc="F F F"
O       -0.04756468       0.39381279      -0.05709082
C       -0.99918537      -0.61475621       0.05745173
C        1.00779936      -0.67713630      -0.00379961
H       -1.60178991      -0.42375240       0.86589660
H       -1.68993750      -0.46241782      -0.88037598
H        1.68401045      -0.44727205      -0.83435668
H        1.66282178      -0.47074542       0.91363504
7
Properties=species:S:1:pos:R:3 C2H4O=T energy=-4175.278570059272 dipole="-0.0 0.36428559175214825 -0.0" pbc="F F F"
O        0.03014880       0.29580871      -0.10061099
C       -1.05094290      -0.62807640       0.00086189
C        1.04116882      -0.71160359       0.01028687
H       -1.65335233      -0.37439696       0.88268396
H       -1.73746106      -0.31701170      -0.94434917
H        1.58685564      -0.38333904      -0.88731338
H        1.65114623      -0.38736417       0.81247684
7
Properties=species:S:1:pos:R:3 C2H4O=T energy=-4175.278570059272 dipole="-0.0 0.36428559175214825 -0.0" pbc="F F F"
O        0.04739463       0.20764081       0.01730082
C       -1.06040976      -0.70368829      -0.03007707
C        1.09499213      -0.61179575      -0.05761210
H       -1.70004321      -0.48464630       0.87017568
H       -1.62815300      -0.46611803      -0.84466092
H        1.62675502      -0.54091309      -0.95088968
H        1.75433675      -0.53215676       0.78633437
7
Properties=species:S:1:pos:R:3 C2H4O=T energy=-4175.278570059272 dipole="-0.0 0.36428559175214825 -0.0" pbc="F F F"
O        0.00668082       0.34551307       0.11052968
C       -1.08829914      -0.63630606      -0.04595715
C        1.06969749      -0.68591946      -0.04326734
H       -1.67073839      -0.44947535       0.91627334
H       -1.69950200      -0.50851708      -0.86586580
H        1.57031204      -0.45968705      -0.90818204
H        1.66138220      -0.52835408       0.89725596
7
Properties=species:S:1:pos:R:3 C2H4O=T energy=-4175.278570059272 dipole="-0.0 0.36428559175214825 -0.0" pbc="F F F"
O        0.14070567       0.36894562      -0.01061445
C       -0.97209202      -0.60337006       0.06609175
C        0.96769610      -0.57871243      -0.05996544
H       -1.51680298      -0.37558350       0.98142532
H       -1.64197029      -0.43816515      -0.81332883
H        1.64397994      -0.41985616      -0.83899479
H        1.65633688      -0.47045455       0.97404340
7
Properties=species:S:1:pos:R:3 C2H4O=T energy=-4175.278570059272 dipole="-0.0 0.36428559175214825 -0.0" pbc="F F F"
O       -0.01266811       0.32682984       0.02472740
C       -1.04799838      -0.64518195       0.04653644
C        1.01514222      -0.68908402      -0.01913866
H       -1.64313292      -0.51212348       0.91290862
H       -1.64306942      -0.44779951      -0.84612345
H        1.67762476      -0.44537026      -0.81778401
H        1.63830006      -0.34247145       0.93478068
7
Properties=species:S:1:pos:R:3 C2H4O=T energy=-4175.278570059272 dipole="-0.0 0.36428559175214825 -0.0" pbc="F F F"
O        0.00097880       0.34805157       0.03135758
C       -1.08596170      -0.58202772       0.00385244
C        1.02069311      -0.58088136       0.02283707
H       -1.70467559      -0.36838873       0.94757574
H       -1.71864832      -0.48401279      -0.94850131
H        1.56092809      -0.29512576      -0.88101350
H        1.70685206      -0.47499423       0.97588873
7
Properties=species:S:1:pos:R:3 C2H4O=T energy=-4175.278570059272 dipole="-0.0 0.36428559175214825 -0.0" pbc="F F F"
O        0.02114038       0.30776273       0.07427021
C       -1.12215580      -0.74740569       0.03822794
C        1.08151514      -0.68517604       0.06550714
H       -1.65139381      -0.33936966       0.85540743
H       -1.72470590      -0.45988238      -0.97443469
H        1.71979870      -0.43798840      -0.88271322
H        1.63808936      -0.42300709       0.81591844
7
Properties=species:S:1:pos:R:3 C2H4O=T energy=-4175.278570059272 dipole="-0.0 0.36428559175214825 -0.0" pbc="F F F"
O        0.01870812       0.33148369      -0.03120907
C       -1.09976082      -0.60575431      -0.04014355
C        1.11304792      -0.68971216      -0.04629912
H       -1.66300425      -0.45106800       0.82639737
H       -1.73718861      -0.40596578      -0.78783951
H        1.75660794      -0.41471479      -0.95207042
H        1.67493703      -0.43607647       0.87683136
7
Properties=species:S:1:pos:R:3 C2H4O=T energy=-4175.278570059272 dipole="-0.0 0.36428559175214825 -0.0" pbc="F F F"
O       -0.02346724       0.39512622       0.01697468
C       -1.03063737      -0.65612904      -0.05965814
C        1.01939698      -0.67859287      -0.04246741
H       -1.57311715      -0.38230806       0.87135267
H       -1.61610827      -0.46678012      -0.93413175
H        1.64760724      -0.47027148      -0.84442090
H        1.68139775      -0.43877789       0.86224769
7
Properties=species:S:1:pos:R:3 C2H4O=T energy=-4175.278570059272 dipole="-0.0 0.36428559175214825 -0.0" pbc="F F F"
O        0.01749172       0.25804607      -0.00265508
C       -1.07315493      -0.58965755      -0.01537708
C        1.08045041      -0.60497649      -0.04417229
H       -1.67622756      -0.48603544       0.87813227
H       -1.67740430      -0.45983361      -0.93779685
H        1.74787681      -0.56197394      -0.88100481
H        1.59967346      -0.46708616       0.89252920
7
Properties=species:S:1:pos:R:3 C2H4O=T energy=-4175.278570059272 dipole="-0.0 0.36428559175214825 -0.0" pbc="F F F"
O        0.03766527       0.30390054      -0.02860866
C       -0.98906188      -0.57429163       0.03538255
C        1.01359214      -0.61662971       0.03944527
H       -1.71434659      -0.50467662       0.91820620
H       -1.68856422      -0.42981171      -0.93401025
H        1.64720422      -0.47556650      -0.95392560
H        1.63554211      -0.46214944       0.86102061
7
Properties=species:S:1:pos:R:3 C2H4O=T energy=-4175.278570059272 dipole="-0.0 0.36428559175214825 -0.0" pbc="F F F"
O       -0.04794887       0.23610134       0.01492448
C       -1.04691755      -0.68249389       0.09255746
C        1.09697674      -0.60181092       0.02380927
H       -1.62957210      -0.49804237       0.88218634
H       -1.57681554      -0.49135396      -0.89117154
H        1.67948095      -0.46361890      -0.87158244
H        1.70676140      -0.53506421       0.90400255
7
Properties=species:S:1:pos:R:3 C2H4O=T energy=-4175.278570059272 dipole="-0.0 0.36428559175214825 -0.0" pbc="F F F"
O       -0.07472760       0.24151269       0.00988470
C       -0.99818518      -0.70472284       0.10393460
C        1.02031799      -0.60745359       0.01022246
H       -1.65737066      -0.51878964       0.87103097
H       -1.67826059      -0.52898474      -0.83949061
H        1.58759530      -0.50612392      -0.92571139
H        1.64566949      -0.51602603       0.90953640
7
Properties=species:S:1:pos:R:3 C2H4O=T energy=-4175.278570059272 dipole="-0.0 0.36428559175214825 -0.0" pbc="F F F"
O       -0.02738551       0.28282583       0.10659344
C       -1.04805069      -0.57699017       0.02644291
C        1.06531853      -0.61545977       0.00586233
H       -1.63490144      -0.50554124       0.92868968
H       -1.58384524      -0.48004107      -1.03745458
H        1.60730380      -0.37696616      -1.01439932
H        1.66052631      -0.49406707       0.86249443
7
Properties=species:S:1:pos:R:3 C2H4O=T energy=-4175.278570059272 dipole="-0.0 0.36428559175214825 -0.0" pbc="F F F"
O        0.05067023       0.41129607      -0.04618326
C       -1.03917743      -0.65573350       0.00838746
C        0.98732751      -0.56962186      -0.03966868
H       -1.69655762      -0.42129048       0.90113794
H       -1.61703431      -0.42412701      -0.90406065
H        1.56482338      -0.41768122      -0.90529452
H        1.59611425      -0.46260859       0.88335156
7
Properties=species:S:1:pos:R:3 C2H4O=T energy=-4175.278570059272 dipole="-0.0 0.36428559175214825 -0.0" pbc="F F F"
O        0.02101272       0.28783851       0.05743485
C       -1.00018280      -0.72716893       0.01911048
C        0.97563122      -0.64521999      -0.03601996
H       -1.65894192      -0.45262756       0.84201803
H       -1.52983445      -0.43657904      -0.89719986
H        1.66621945      -0.52472902      -0.87850584
H        1.67074376      -0.47830064       0.83658335
7
Properties=species:S:1:pos:R:3 C2H4O=T energy=-4175.278570059272 dipole="-0.0 0.36428559175214825 -0.0" pbc="F F F"
O        0.00343467       0.34390327       0.03667943
C       -1.05252443      -0.65166812      -0.00903978
C        0.99566934      -0.63149628       0.06310654
H       -1.69658926      -0.44934590       0.83406478
H       -1.65397064      -0.51236860      -0.83883444
H        1.68086567      -0.42045205      -0.81813628
H        1.63550367      -0.40088643       0.94914344
7
Properties=species:S:1:pos:R:3 C2H4O=T energy=-4175.278570059272 dipole="-0.0 0.36428559175214825 -0.0" pbc="F F F"
O       -0.12728053       0.35416126      -0.00132724
C       -1.00721740      -0.68161980       0.08226070
C        1.04434032      -0.57340326      -0.04200348
H       -1.63296369      -0.48502105       0.87529885
H       -1.61991776      -0.57652863      -0.91282449
H        1.68763216      -0.41414116      -0.91447493
H        1.61212163      -0.46129697       0.95988531
7
Properties=species:S:1:pos:R:3 C2H4O=T energy=-4175.278570059272 dipole="-0.0 0.36428559175214825 -0.0" pbc="F F F"
O        0.04825744       0.25711831       0.01660076
C       -1.03525131      -0.59178467       0.02305725
C        1.04676613      -0.59729545       0.01575818
H       -1.59619165      -0.37362116       0.91134250
H       -1.70457834      -0.43423329      -0.95153109
H        1.59333562      -0.40817786      -0.85188709
H        1.58660855      -0.46111796       0.85103024
7
Properties=species:S:1:pos:R:3 C2H4O=T energy=-4175.278570059272 dipole="-0.0 0.36428559175214825 -0.0" pbc="F F F"
O       -0.00971508       0.30686663       0.01180365
C       -1.10509899      -0.60644311       0.06562995
C        1.07012178      -0.58057354      -0.05074615
H       -1.62827929      -0.49663894       0.94963185
H       -1.66614806      -0.44303530      -0.93277042
H        1.65787111      -0.43093770      -0.85501345
H        1.68822929      -0.46620217       0.93169866
7
Properties=species:S:1:pos:R:3 C2H4O=T energy=-4175.278570059272 dipole="-0.0 0.36428559175214825 -0.0" pbc="F F F"
O        0.02188853       0.25304121       0.01566207
C       -1.09514919      -0.72194306      -0.02830426
C        1.03482893      -0.68393258      -0.08091559
H       -1.63377389      -0.48101235       0.83393121
H       -1.70256126      -0.46736773      -0.85342700
H        1.70561174      -0.45942386      -0.90428546
H        1.65502038      -0.46531641       0.89588133
7
Properties=species:S:1:pos:R:3 C2H4O=T energy=-4175.278570059272 dipole="-0.0 0.36428559175214825 -0.0" pbc="F F F"
O        0.00489720       0.29770247      -0.01989509
C       -1.05215811      -0.65351552      -0.00297480
C        0.97893108      -0.68397383      -0.10232586
H       -1.72360807      -0.40355813       0.97855357
H       -1.65563368      -0.44938292      -0.86866727
H        1.64448735      -0.41494857      -0.87440312
H        1.61792059      -0.48448312       0.92452565
7
Properties=species:S:1:pos:R:3 C2H4O=T energy=-4175.278570059272 dipole="-0.0 0.36428559175214825 -0.0" pbc="F F F"
O       -0.01143593       0.33601938       0.08529674
C       -1.01825382      -0.61591350       0.02902553
C        1.06015211      -0.63867825       0.01877441
H       -1.59539665      -0.44456749       0.76209076
H       -1.70977046      -0.50668042      -0.92497983
H        1.67793995      -0.49243795      -0.85716163
H        1.59623400      -0.52378076       0.95215612
7
Properties=species:S:1:pos:R:3 C2H4O=T energy=-4175.278570059272 dipole="-0.0 0.36428559175214825 -0.0" pbc="F F F"
O       -0.01834934       0.32259614       0.01247237
C       -1.08700190      -0.56043283      -0.02324989
C        1.03886797      -0.65965478       0.01671685
H       -1.60697946      -0.46266435       0.95802571
H       -1.57095419      -0.40079162      -0.80299706
H        1.62532885      -0.43433394      -0.92743501
H        1.72687482      -0.49700389       0.81246421
7
Properties=species:S:1:pos:R:3 C2H4O=T energy=-4175.278570059272 dipole="-0.0 0.36428559175214825 -0.0" pbc="F F F"
O        0.02247828       0.32567288       0.08397034
C       -1.07964790      -0.63592299      -0.02759809
C        1.06294512      -0.72831451      -0.09306556
H       -1.65901354      -0.49038353       0.92275338
H       -1.55851727      -0.51290073      -0.97608921
H        1.56011721      -0.51381353      -0.82352558
H        1.71530770      -0.50479991       0.96891833
7
Properties=species:S:1:pos:R:3 C2H4O=T energy=-4175.278570059272 dipole="-0.0 0.36428559175214825 -0.0" pbc="F F F"
O        0.02251131       0.27210519      -0.04906199
C       -1.06898929      -0.64812108       0.03709530
C        0.97536766      -0.69195797       0.04052245
H       -1.67921052      -0.44997520       0.84108770
H       -1.59573375      -0.51508447      -0.94868652
H        1.67769384      -0.50446558      -0.85439238
H        1.58801230      -0.42500157       0.85884859
7
Properties=species:S:1:pos:R:3 C2H4O=T energy=-4175.278570059272 dipole="-0.0 0.36428559175214825 -0.0" pbc="F F F"
O        0.05030556       0.36278135       0.02459294
C       -1.07715549      -0.68143992      -0.01868984
C        1.07147145      -0.62543402      -0.01653510
H       -1.58674687      -0.36763610       0.91158101
H       -1.68438754      -0.50786052      -0.89952344
H        1.71883208      -0.37750716      -0.85833851
H        1.68029715      -0.41028105       0.96710859
7
Properties=species:S:1:pos:R:3 C2H4O=T energy=-4175.278570059272 dipole="-0.0 0.36428559175214825 -0.0" pbc="F F F"
O       -0.00494720       0.33314320      -0.08690890
C       -1.02873298      -0.62876068       0.09574054
C        1.07864240      -0.65981342      -0.07102793
H       -1.59380642      -0.55078165       0.93282059
H       -1.64429545      -0.50981460      -0.84077920
H        1.68633441      -0.50172423      -0.82757952
H        1.58738892      -0.42881800       0.89446285
7
Properties=species:S:1:pos:R:3 C2H4O=T energy=-4175.278570059272 dipole="-0.0 0.36428559175214825 -0.0" pbc="F F F"
O       -0.02771380       0.25508962      -0.03700487
C       -1.12597503      -0.61299828      -0.03494135
C        1.06464403      -0.64230958      -0.04664950
H       -1.71870879      -0.45932279       0.96137106
H       -1.59678059      -0.45547692      -0.86742775
H        1.61423647      -0.48430690      -0.90422515
H        1.66693330      -0.50728431       0.85062395
7
Properties=species:S:1:pos:R:3 C2H4O=T energy=-4175.278570059272 dipole="-0.0 0.36428559175214825 -0.0" pbc="F F F"
O       -0.06336974       0.23447606       0.00736396
C       -1.07377239      -0.67184139       0.02823281
C        1.05077985      -0.53190583       0.03476337
H       -1.61733735      -0.45355524       0.97038462
H       -1.66217084      -0.51229725      -0.83825618
H        1.62519796      -0.48813489      -0.90743602
H        1.59165287      -0.42239777       0.94956004
7
Properties=species:S:1:pos:R:3 C2H4O=T energy=-4175.278570059272 dipole="-0.0 0.36428559175214825 -0.0" pbc="F F F"
O       -0.07788766       0.30261906       0.04858347
C       -1.10246225      -0.66533847       0.05215773
C        1.05921570      -0.60070652       0.04861738
H       -1.55680179      -0.48163660       0.91481745
H       -1.67491268      -0.40409630      -0.90737624
H        1.67590587      -0.49460353      -0.83874110
H        1.69624532      -0.54196567       0.84803432
7
Properties=species:S:1:pos:R:3 C2H4O=T energy=-4175.278570059272 dipole="-0.0 0.36428559175214825 -0.0" pbc="F F F"
O       -0.02322675       0.30567401       0.02519628
C       -0.99855463      -0.56476157       0.01585442
C        1.03824101      -0.68946831      -0.10645127
H       -1.61249157      -0.46695807       0.87610577
H       -1.73388006      -0.52364862      -0.89245756
H        1.58880079      -0.44693988      -0.95459698
H        1.69489854      -0.46034852       0.96853527
7
Properties=species:S:1:pos:R:3 C2H4O=T energy=-4175.278570059272 dipole="-0.0 0.36428559175214825 -0.0" pbc="F F F"
O       -0.04024327       0.35254211       0.03052557
C       -1.04903932      -0.58954170       0.00631280
C        1.07712500      -0.60843771       0.00961593
H       -1.66175152      -0.41137838       0.83837157
H       -1.69238258      -0.44358677      -0.94970841
H        1.58585167      -0.48201885      -0.84635239
H        1.70490804      -0.41107135       0.84220969
7
Properties=species:S:1:pos:R:3 C2H4O=T energy=-4175.278570059272 dipole="-0.0 0.36428559175214825 -0.0" pbc="F F F"
O        0.07279116       0.32560228       0.04995062
C       -1.02136382      -0.70852761      -0.07284504
C        1.11755436      -0.64704736       0.06393260
H       -1.68068020      -0.43034221       0.84320465
H       -1.60927935      -0.49180476      -0.87829763
H        1.62967784      -0.43189877      -0.89918936
H        1.62027885      -0.49053915       0.92973637
7
Properties=species:S:1:pos:R:3 C2H4O=T energy=-4175.278570059272 dipole="-0.0 0.36428559175214825 -0.0" pbc="F F F"
O       -0.01554996       0.43823711       0.01952886
C       -1.11511772      -0.59009955       0.00603168
C        1.03715720      -0.61892326       0.04114650
H       -1.61815996      -0.47969178       0.83425925
H       -1.63262455      -0.47399258      -0.85778109
H        1.59770858      -0.42556369      -0.85156828
H        1.66110682      -0.48689586       0.95057586
7
Properties=species:S:1:pos:R:3 C2H4O=T energy=-4175.278570059272 dipole="-0.0 0.36428559175214825 -0.0" pbc="F F F"
O       -0.06260068       0.26777093      -0.03246761
C       -0.92841496      -0.64438618      -0.03158090
C        1.10505679      -0.62642836      -0.02128943
H       -1.67423464      -0.49543586       0.89685047
H       -1.58312914      -0.40763443      -0.86780751
H        1.69252412      -0.48412510      -0.89613622
H        1.64855106      -0.42816829       0.85736161
7
Properties=species:S:1:pos:R:3 C2H4O=T energy=-4175.278570059272 dipole="-0.0 0.36428559175214825 -0.0" pbc="F F F"
O       -0.00063003       0.18728283       0.01494731
C       -1.01954097      -0.71595577       0.01174475
C        1.15256830      -0.60775528       0.00503794
H       -1.61559640      -0.47102934       0.96368194
H       -1.68692661      -0.43512024      -0.89820609
H        1.63688542      -0.47687688      -0.92628891
H        1.60755660      -0.49457039       0.97150769
7
Properties=species:S:1:pos:R:3 C2H4O=T energy=-4175.278570059272 dipole="-0.0 0.36428559175214825 -0.0" pbc="F F F"
O       -0.03567491       0.35066999       0.00273814
C       -1.00316393      -0.49952019       0.07123755
C        0.99466340      -0.70549624       0.04906184
H       -1.67999946      -0.60578242       0.88889982
H       -1.54243457      -0.39662625      -0.83752535
H        1.65579904      -0.50633322      -0.94428033
H        1.55467171      -0.38785294       0.91434500
7
Properties=species:S:1:pos:R:3 C2H4O=T energy=-4175.278570059272 dipole="-0.0 0.36428559175214825 -0.0" pbc="F F F"
O        0.07719228       0.31810073      -0.00732117
C       -1.03798722      -0.59910879      -0.02603623
C        1.03111686      -0.60825621      -0.04045939
H       -1.58614072      -0.48699294       0.91173226
H       -1.71654327      -0.50987448      -0.84909046
H        1.66137743      -0.48855216      -0.87623835
H        1.68198361      -0.45588028       0.93873204
7
Properties=species:S:1:pos:R:3 C2H4O=T energy=-4175.278570059272 dipole="-0.0 0.36428559175214825 -0.0" pbc="F F F"
O        0.02517121       0.29081779      -0.01502975
C       -0.98684252      -0.59796060      -0.01368402
C        1.01931455      -0.58839516       0.03304106
H       -1.60996807      -0.40187754       0.85364902
H       -1.62706598      -0.54597736      -0.81939820
H        1.60230100      -0.42964152      -0.93226134
H        1.71677460      -0.43360822       0.85827210
7
Properties=species:S:1:pos:R:3 C2H4O=T energy=-4175.278570059272 dipole="-0.0 0.36428559175214825 -0.0" pbc="F F F"
O       -0.06842816       0.33061428       0.02287426
C       -1.09299581      -0.67503960       0.05357243
C        1.01446465      -0.60100869      -0.04431698
H       -1.61469450      -0.43077552       0.88283468
H       -1.61858176      -0.54585098      -0.85635694
H        1.59491435      -0.35360873      -0.87270843
H        1.65676614      -0.44497264       0.84132751
7
Properties=species:S:1:pos:R:3 C2H4O=T energy=-4175.278570059272 dipole="-0.0 0.36428559175214825 -0.0" pbc="F F F"
O        0.00026692       0.26141001      -0.01109503
C       -1.07957460      -0.65119336      -0.05291196
C        1.06572320      -0.55877876       0.00501344
H       -1.66009700      -0.39682313       0.98167149
H       -1.63211118      -0.39540677      -0.93139218
H        1.73575516      -0.42329647      -0.83335438
H        1.58709220      -0.44649121       0.91868491
7
Properties=species:S:1:pos:R:3 C2H4O=T energy=-4175.278570059272 dipole="-0.0 0.36428559175214825 -0.0" pbc="F F F"
O        0.04203118       0.28941389      -0.03322713
C       -0.99142952      -0.63123893       0.03273704
C        1.10140926      -0.59799296      -0.07107598
H       -1.67316026      -0.45547744       0.94249210
H       -1.64299832      -0.44647923      -0.89778654
H        1.62379870      -0.42446256      -0.81365802
H        1.63023734      -0.49320156       0.81930256
7
Properties=species:S:1:pos:R:3 C2H4O=T energy=-4175.278570059272 dipole="-0.0 0.36428559175214825 -0.0" pbc="F F F"
O       -0.02736556       0.34501949      -0.04358544
C       -0.99909437      -0.58976880      -0.04932568
C        1.08783898      -0.67960770       0.13125587
H       -1.64839456      -0.48436944       0.97289298
H       -1.61701845      -0.49850522      -0.82407093
H        1.68920337      -0.40767095      -0.87642884
H        1.69777510      -0.44123673       0.91512800
7
Properties=species:S:1:pos:R:3 C2H4O=T energy=-4175.278570059272 dipole="-0.0 0.36428559175214825 -0.0" pbc="F F F"
O       -0.01353879       0.24190654       0.06346897
C       -1.03341986      -0.66284674      -0.02775391
C        1.02638789      -0.56887576       0.02365110
H       -1.70573803      -0.39019276       0.90805755
H       -1.59971389      -0.49275582      -0.95153901
H        1.55707132      -0.50800082      -0.86749804
H        1.62181285      -0.58647617       0.84879214
7
Properties=species:S:1:pos:R:3 C2H4O=T energy=-4175.278570059272 dipole="-0.0 0.36428559175214825 -0.0" pbc="F F F"
O        0.00357381       0.23460338      -0.01537803
C       -1.03563293      -0.59982312      -0.13130924
C        1.01933927      -0.73332521       0.04193574
H       -1.64069789      -0.41632877       0.98159378
H       -1.65558943      -0.48691200      -0.84942406
H        1.69317760      -0.46705441      -0.89998847
H        1.60310578      -0.45087020       0.92729038
7
Properties=species:S:1:pos:R:3 C2H4O=T energy=-4175.278570059272 dipole="-0.0 0.36428559175214825 -0.0" pbc="F F F"
O       -0.05800291       0.39085554       0.03002091
C       -1.01699893      -0.62515473      -0.01305824
C        1.08409003      -0.64777649       0.02118710
H       -1.61170798      -0.47197515       0.84696255
H       -1.57595312      -0.40320989      -0.99086887
H        1.58766768      -0.44225020      -0.83827901
H        1.70458164      -0.50350855       0.96927647
7
Properties=species:S:1:pos:R:3 C2H4O=T energy=-4175.278570059272 dipole="-0.0 0.36428559175214825 -0.0" pbc="F F F"
O       -0.02581609       0.26864295      -0.00115335
C       -0.98932698      -0.61116352       0.06222490
C        1.04443194      -0.67248409      -0.02373684
H       -1.63618088      -0.38075649       0.89357457
H       -1.63455236      -0.45598694      -0.90773841
H        1.70229590      -0.47100156      -0.93541977
H        1.65756107      -0.51429801       0.88199290
7
Properties=species:S:1:pos:R:3 C2H4O=T energy=-4175.278570059272 dipole="-0.0 0.36428559175214825 -0.0" pbc="F F F"
O        0.00310070       0.31793607       0.03924131
C       -0.98507074      -0.57036589      -0.09116482
C        1.10989895      -0.59459341       0.00880996
H       -1.60843085      -0.47861571       0.86223041
H       -1.68624883      -0.50549401      -0.86359122
H        1.61902123      -0.48999784      -0.90187596
H        1.65624067      -0.35937427       0.80366097
