7
Properties=species:S:1:pos:R:3 C2H4O=T energy=-4175.278570059272 dipole="-0.0 0.36428559175214825 -0.0" pbc="F F F"
O       -1.06236169       0.86832139      -0.01704332
C       -1.06917283      -0.68465767      -0.03493482
C        1.06643279      -0.66832285      -0.11522157
H       -1.72081858      -0.45526646       0.88188016
H       -1.67995421      -0.44714719      -0.91092599
H        1.66805081      -0.38173183      -0.90488285
H        1.66921869      -0.45891889       0.97007333
7
Properties=species:S:1:pos:R:3 C2H4O=T energy=-4175.278570059272 dipole="-0.0 0.36428559175214825 -0.0" pbc="F F F"
O       -1.05780322       0.80706126      -0.05952135
C       -1.00423022      -0.61857360      -0.06285531
C        0.96203050      -0.72689663       0.05923442
H       -1.56036361      -0.47351607       0.92166142
H       -1.68188577      -0.49359887      -0.96664911
H        1.54505181      -0.40948479      -0.81181731
H        1.58690574      -0.46903708       0.88580298
7
Properties=species:S:1:pos:R:3 C2H4O=T energy=-4175.278570059272 dipole="-0.0 0.36428559175214825 -0.0" pbc="F F F"
O       -0.98883202       0.75151599       0.02679631
C       -1.05797473      -0.59462730       0.06423820
C        1.01699773      -0.63275516       0.01133446
H       -1.65919436      -0.52122195       0.88546422
H       -1.54931337      -0.48622600      -0.87147258
H        1.62122195      -0.55098735      -0.91233499
H        1.72455528      -0.45940263       0.95895972
7
Properties=species:S:1:pos:R:3 C2H4O=T energy=-4175.278570059272 dipole="-0.0 0.36428559175214825 -0.0" pbc="F F F"
O       -0.98188914       0.74303887      -0.00705021
C       -1.04023269      -0.67967295      -0.02570770
C        0.99273629      -0.61966088      -0.10484189
H       -1.66350929      -0.42627800       0.92237701
H       -1.70987379      -0.54628968      -0.92723494
H        1.73334673      -0.44361950      -0.93529784
H        1.67704745      -0.53334956       0.93144158
7
Properties=species:S:1:pos:R:3 C2H4O=T energy=-4175.278570059272 dipole="-0.0 0.36428559175214825 -0.0" pbc="F F F"
O       -1.10226480       0.78046140       0.02452575
C       -1.08705345      -0.69301913      -0.12448238
C        1.05538531      -0.61123975       0.01426758
H       -1.61287356      -0.60379695       0.87167844
H       -1.59057114      -0.48447903      -0.88467668
H        1.61633209      -0.42302329      -0.91912192
H        1.53174570      -0.42077208       0.86599615
7
Properties=species:S:1:pos:R:3 C2H4O=T energy=-4175.278570059272 dipole="-0.0 0.36428559175214825 -0.0" pbc="F F F"
O       -1.09218242       0.76372083      -0.02613531
C       -0.98920606      -0.67214374      -0.00165809
C        1.05630628      -0.62819506      -0.05155982
H       -1.64411566      -0.37457021       0.89786566
H       -1.68388503      -0.46752073      -0.90648459
H        1.62944228      -0.45467639      -0.89979350
H        1.61638448      -0.54643230       0.87492389
7
Properties=species:S:1:pos:R:3 C2H4O=T energy=-4175.278570059272 dipole="-0.0 0.36428559175214825 -0.0" pbc="F F F"
O       -1.05927222       0.79470070       0.03532856
C       -1.02017755      -0.58445456      -0.04540968
C        1.06260024      -0.65115186      -0.09281316
H       -1.58367420      -0.43315373       0.91162365
H       -1.62477911      -0.45835871      -0.79195500
H        1.62861970      -0.46309796      -0.96606877
H        1.64236859      -0.39390462       0.91594466
7
Properties=species:S:1:pos:R:3 C2H4O=T energy=-4175.278570059272 dipole="-0.0 0.36428559175214825 -0.0" pbc="F F F"
O       -1.02702580       0.78400855      -0.02401725
C       -1.03833650      -0.59176405      -0.05035855
C        1.02769741      -0.63054076      -0.01334507
H       -1.67135197      -0.54594863       0.94165431
H       -1.62569875      -0.43359920      -0.94195660
H        1.66745337      -0.44056973      -0.93903720
H        1.54839094      -0.47498327       0.95114165
7
Properties=species:S:1:pos:R:3 C2H4O=T energy=-4175.278570059272 dipole="-0.0 0.36428559175214825 -0.0" pbc="F F F"
O       -1.07589636       0.76967507       0.01220627
C       -1.03905774      -0.78901141       0.04704621
C        1.01395783      -0.67671981      -0.05396790
H       -1.64585140      -0.51777348       0.88132951
H       -1.57397938      -0.42322635      -0.94483129
H        1.65563581      -0.48845358      -0.95457601
H        1.66131616      -0.48688712       0.97319322
7
Properties=species:S:1:pos:R:3 C2H4O=T energy=-4175.278570059272 dipole="-0.0 0.36428559175214825 -0.0" pbc="F F F"
O       -1.00616145       0.81131857      -0.00756074
C       -1.03255439      -0.63958490      -0.08761384
C        1.02786327      -0.55856765       0.04308789
H       -1.70350645      -0.43760151       0.91286566
H       -1.62936505      -0.51216363      -0.93305629
H        1.51004031      -0.51231459      -0.94951922
H        1.61253905      -0.47769888       0.97185691
