7
Properties=species:S:1:pos:R:3 C2H4O=T energy=-4181.764945393823 dipole="-0.0 -0.385055797266779 -0.0" pbc="F F F"
O       -0.53057569       1.03586626      -0.05709122
C       -0.69335185      -0.42147296       0.05745147
C        0.70196653      -0.48385274      -0.00379982
H       -1.22138204      -0.63578165       0.89141564
H       -1.30953069      -0.67444690      -0.90589454
H        1.30360342      -0.65930114      -0.85987588
H        1.28241364      -0.68277499       0.93915472
7
Properties=species:S:1:pos:R:3 C2H4O=T energy=-4181.764945393823 dipole="-0.0 -0.385055797266779 -0.0" pbc="F F F"
O       -0.45286222       0.93786218      -0.10061140
C       -0.74510938      -0.43479315       0.00086163
C        0.73533599      -0.51832003       0.01028666
H       -1.27294446      -0.58642621       0.90820300
H       -1.35705425      -0.52904078      -0.96986773
H        1.20644861      -0.59536813      -0.91283258
H        1.27073809      -0.59939374       0.83799652
7
Properties=species:S:1:pos:R:3 C2H4O=T energy=-4181.764945393823 dipole="-0.0 -0.385055797266779 -0.0" pbc="F F F"
O       -0.43561638       0.84969428       0.01730042
C       -0.75457624      -0.51040504      -0.03007733
C        0.78915930      -0.41851219      -0.05761231
H       -1.31963534      -0.69667555       0.89569472
H       -1.24774619      -0.67814711      -0.87017948
H        1.24634799      -0.75294218      -0.97640888
H        1.37392861      -0.74418633       0.81185405
7
Properties=species:S:1:pos:R:3 C2H4O=T energy=-4181.764945393823 dipole="-0.0 -0.385055797266779 -0.0" pbc="F F F"
O       -0.47633019       0.98756654       0.11052928
C       -0.78246562      -0.44302281      -0.04595741
C        0.76386466      -0.49263590      -0.04326755
H       -1.29033052      -0.66150460       0.94179238
H       -1.31909519      -0.72054616      -0.89138436
H        1.18990501      -0.67171614      -0.93370124
H        1.28097406      -0.74038365       0.92277564
7
Properties=species:S:1:pos:R:3 C2H4O=T energy=-4181.764945393823 dipole="-0.0 -0.385055797266779 -0.0" pbc="F F F"
O       -0.34230534       1.01099909      -0.01061485
C       -0.66625850      -0.41008681       0.06609149
C        0.66186327      -0.38542887      -0.05996565
H       -1.13639511      -0.58761275       1.00694436
H       -1.26156348      -0.65019423      -0.83884739
H        1.26357291      -0.63188525      -0.86451399
H        1.27592874      -0.68248412       0.99956308
7
Properties=species:S:1:pos:R:3 C2H4O=T energy=-4181.764945393823 dipole="-0.0 -0.385055797266779 -0.0" pbc="F F F"
O       -0.49567912       0.96888331       0.02472700
C       -0.74216486      -0.45189870       0.04653618
C        0.70930939      -0.49580046      -0.01913887
H       -1.26272505      -0.72415273       0.93842766
H       -1.26266261      -0.65982859      -0.87164201
H        1.29721773      -0.65739935      -0.84330321
H        1.25789192      -0.55450102       0.96030036
7
Properties=species:S:1:pos:R:3 C2H4O=T energy=-4181.764945393823 dipole="-0.0 -0.385055797266779 -0.0" pbc="F F F"
O       -0.48203221       0.99010504       0.03135718
C       -0.78012818      -0.38874447       0.00385218
C        0.71486028      -0.38759780       0.02283686
H       -1.32426772      -0.58041798       0.97309478
H       -1.33824151      -0.69604187      -0.97401987
H        1.18052106      -0.50715485      -0.90653270
H        1.32644392      -0.68702380       1.00140841
7
Properties=species:S:1:pos:R:3 C2H4O=T energy=-4181.764945393823 dipole="-0.0 -0.385055797266779 -0.0" pbc="F F F"
O       -0.46187064       0.94981620       0.07426981
C       -0.81632228      -0.55412244       0.03822768
C        0.77568231      -0.49189248       0.06550693
H       -1.27098594      -0.55139891       0.88092647
H       -1.34429909      -0.67191146      -0.99995325
H        1.33939167      -0.65001749      -0.90823242
H        1.25768122      -0.63503666       0.84143812
7
Properties=species:S:1:pos:R:3 C2H4O=T energy=-4181.764945393823 dipole="-0.0 -0.385055797266779 -0.0" pbc="F F F"
O       -0.46430290       0.97353717      -0.03120947
C       -0.79392730      -0.41247106      -0.04014381
C        0.80721509      -0.49642860      -0.04629933
H       -1.28259638      -0.66309725       0.85191641
H       -1.35678180      -0.61799486      -0.81335807
H        1.37620091      -0.62674388      -0.97758962
H        1.29452889      -0.64810604       0.90235104
7
Properties=species:S:1:pos:R:3 C2H4O=T energy=-4181.764945393823 dipole="-0.0 -0.385055797266779 -0.0" pbc="F F F"
O       -0.50647826       1.03717970       0.01697428
C       -0.72480385      -0.46284579      -0.05965840
C        0.71356415      -0.48530931      -0.04246762
H       -1.19270928      -0.59433731       0.89687171
H       -1.23570146      -0.67880920      -0.95965031
H        1.26720021      -0.68230057      -0.86994010
H        1.30098961      -0.65080746       0.88776737
