7
Properties=species:S:1:pos:R:3 C2H4O=T energy=-4181.764945393823 dipole="-0.0 -0.385055797266779 -0.0" pbc="F F F"
O       -0.95491626       0.98474958      -0.03120751
C       -0.74966504      -0.49679395      -0.04515430
C        0.71979238      -0.38351789       0.02969649
H       -1.25085137      -0.69917802       0.97116777
H       -1.22703064      -0.69992824      -0.87539250
H        1.27605344      -0.70157590      -0.95786825
H        1.31096149      -0.65695757       0.89562242
7
Properties=species:S:1:pos:R:3 C2H4O=T energy=-4181.764945393823 dipole="-0.0 -0.385055797266779 -0.0" pbc="F F F"
O       -0.92246232       0.97205841      -0.07921782
C       -0.69139858      -0.45774997       0.00787303
C        0.76164247      -0.47436498       0.07437742
H       -1.30659446      -0.70976564       0.94395036
H       -1.31820974      -0.62928572      -0.86095884
H        1.24454688      -0.75588216      -0.85162839
H        1.25815869      -0.73644587       0.99218531
7
Properties=species:S:1:pos:R:3 C2H4O=T energy=-4181.764945393823 dipole="-0.0 -0.385055797266779 -0.0" pbc="F F F"
O       -0.90768352       0.89471375      -0.07304274
C       -0.70608231      -0.44538500      -0.00950609
C        0.74448460      -0.48485835       0.01016887
H       -1.34806359      -0.65241966       0.96569215
H       -1.25752121      -0.73958570      -0.87802821
H        1.24498083      -0.64893665      -0.88787458
H        1.22659033      -0.57401555       0.90512514
7
Properties=species:S:1:pos:R:3 C2H4O=T energy=-4181.764945393823 dipole="-0.0 -0.385055797266779 -0.0" pbc="F F F"
O       -1.01820663       0.84038069      -0.02754143
C       -0.76718719      -0.48613196       0.03193115
C        0.72895566      -0.45643023      -0.08107096
H       -1.27951404      -0.72625166       0.88623974
H       -1.27030611      -0.64534030      -0.91917539
H        1.24248283      -0.66620984      -0.90729550
H        1.17941858      -0.70616580       0.96770702
7
Properties=species:S:1:pos:R:3 C2H4O=T energy=-4181.764945393823 dipole="-0.0 -0.385055797266779 -0.0" pbc="F F F"
O       -1.01829668       0.92971882       0.07097051
C       -0.69614075      -0.44353495       0.02761496
C        0.68373715      -0.43959086      -0.08990097
H       -1.30757366      -0.68804052       0.90251680
H       -1.30295183      -0.74405463      -0.95449862
H        1.23230754      -0.67649378      -0.92697295
H        1.25105296      -0.67402720       0.89086294
7
Properties=species:S:1:pos:R:3 C2H4O=T energy=-4181.764945393823 dipole="-0.0 -0.385055797266779 -0.0" pbc="F F F"
O       -0.84444241       0.95648551       0.04481489
C       -0.69730795      -0.47185780       0.00586368
C        0.64328704      -0.45429103      -0.04837138
H       -1.17019381      -0.64392605       0.87270452
H       -1.31494362      -0.69650636      -0.86613776
H        1.27168642      -0.56434428      -0.98752243
H        1.31714756      -0.69096019       0.87537890
7
Properties=species:S:1:pos:R:3 C2H4O=T energy=-4181.764945393823 dipole="-0.0 -0.385055797266779 -0.0" pbc="F F F"
O       -0.95756770       0.93251214      -0.07803755
C       -0.78125125      -0.41817539      -0.02742526
C        0.68368014      -0.33631991       0.00724615
H       -1.33863016      -0.65598179       0.95266686
H       -1.32033922      -0.68626276      -0.94980840
H        1.20375044      -0.78665380      -1.04947079
H        1.25556070      -0.66592878       0.98976755
7
Properties=species:S:1:pos:R:3 C2H4O=T energy=-4181.764945393823 dipole="-0.0 -0.385055797266779 -0.0" pbc="F F F"
O       -0.97206421       1.03366369      -0.02930420
C       -0.74732556      -0.54789347      -0.00281592
C        0.79772103      -0.45946670      -0.07957839
H       -1.35360377      -0.72939742       0.91785106
H       -1.21446577      -0.72070860      -0.88109827
H        1.31205543      -0.65069880      -0.99479680
H        1.26307742      -0.71010753       0.89117403
7
Properties=species:S:1:pos:R:3 C2H4O=T energy=-4181.764945393823 dipole="-0.0 -0.385055797266779 -0.0" pbc="F F F"
O       -0.87442119       1.03165620      -0.02710648
C       -0.70701184      -0.41301617      -0.05302299
C        0.72879989      -0.43209162       0.01334954
H       -1.27260545      -0.60522894       0.96632334
H       -1.18335714      -0.71066911      -0.90916227
H        1.33142441      -0.67186111      -0.90909979
H        1.24195302      -0.69635309       0.94205775
7
Properties=species:S:1:pos:R:3 C2H4O=T energy=-4181.764945393823 dipole="-0.0 -0.385055797266779 -0.0" pbc="F F F"
O       -1.02140883       0.88203633       0.02208105
C       -0.72924879      -0.51709879       0.00365307
C        0.78884821      -0.36752428       0.00577537
H       -1.26698526      -0.61893121       0.85048304
H       -1.22206231      -0.67121390      -0.99834013
H        1.28818518      -0.70764797      -0.87015466
H        1.14698601      -0.70484751       0.94655814
