7
Properties=species:S:1:pos:R:3 C2H4O=T energy=-4175.278570059272 dipole="-0.0 0.36428559175214825 -0.0" pbc="F F F"
O       -0.83887303       0.82860881      -0.05709066
C       -0.99918537      -0.61475621       0.05745173
C        1.00779936      -0.67713630      -0.00379961
H       -1.60178991      -0.42375240       0.86589660
H       -1.68993750      -0.46241782      -0.88037598
H        1.68401045      -0.44727205      -0.83435668
H        1.66282178      -0.47074542       0.91363504
7
Properties=species:S:1:pos:R:3 C2H4O=T energy=-4175.278570059272 dipole="-0.0 0.36428559175214825 -0.0" pbc="F F F"
O       -0.76115955       0.73060473      -0.10061084
C       -1.05094290      -0.62807640       0.00086189
C        1.04116882      -0.71160359       0.01028687
H       -1.65335233      -0.37439696       0.88268396
H       -1.73746106      -0.31701170      -0.94434917
H        1.58685564      -0.38333904      -0.88731338
H        1.65114623      -0.38736417       0.81247684
7
Properties=species:S:1:pos:R:3 C2H4O=T energy=-4175.278570059272 dipole="-0.0 0.36428559175214825 -0.0" pbc="F F F"
O       -0.74391372       0.64243683       0.01730098
C       -1.06040976      -0.70368829      -0.03007707
C        1.09499213      -0.61179575      -0.05761210
H       -1.70004321      -0.48464630       0.87017568
H       -1.62815300      -0.46611803      -0.84466092
H        1.62675502      -0.54091309      -0.95088968
H        1.75433675      -0.53215676       0.78633437
7
Properties=species:S:1:pos:R:3 C2H4O=T energy=-4175.278570059272 dipole="-0.0 0.36428559175214825 -0.0" pbc="F F F"
O       -0.78462753       0.78030908       0.11052984
C       -1.08829914      -0.63630606      -0.04595715
C        1.06969749      -0.68591946      -0.04326734
H       -1.67073839      -0.44947535       0.91627334
H       -1.69950200      -0.50851708      -0.86586580
H        1.57031204      -0.45968705      -0.90818204
H        1.66138220      -0.52835408       0.89725596
7
Properties=species:S:1:pos:R:3 C2H4O=T energy=-4175.278570059272 dipole="-0.0 0.36428559175214825 -0.0" pbc="F F F"
O       -0.65060268       0.80374163      -0.01061429
C       -0.97209202      -0.60337006       0.06609175
C        0.96769610      -0.57871243      -0.05996544
H       -1.51680298      -0.37558350       0.98142532
H       -1.64197029      -0.43816515      -0.81332883
H        1.64397994      -0.41985616      -0.83899479
H        1.65633688      -0.47045455       0.97404340
7
Properties=species:S:1:pos:R:3 C2H4O=T energy=-4175.278570059272 dipole="-0.0 0.36428559175214825 -0.0" pbc="F F F"
O       -0.80397646       0.76162586       0.02472756
C       -1.04799838      -0.64518195       0.04653644
C        1.01514222      -0.68908402      -0.01913866
H       -1.64313292      -0.51212348       0.91290862
H       -1.64306942      -0.44779951      -0.84612345
H        1.67762476      -0.44537026      -0.81778401
H        1.63830006      -0.34247145       0.93478068
7
Properties=species:S:1:pos:R:3 C2H4O=T energy=-4175.278570059272 dipole="-0.0 0.36428559175214825 -0.0" pbc="F F F"
O       -0.79032955       0.78284759       0.03135773
C       -1.08596170      -0.58202772       0.00385244
C        1.02069311      -0.58088136       0.02283707
H       -1.70467559      -0.36838873       0.94757574
H       -1.71864832      -0.48401279      -0.94850131
H        1.56092809      -0.29512576      -0.88101350
H        1.70685206      -0.47499423       0.97588873
7
Properties=species:S:1:pos:R:3 C2H4O=T energy=-4175.278570059272 dipole="-0.0 0.36428559175214825 -0.0" pbc="F F F"
O       -0.77016798       0.74255875       0.07427037
C       -1.12215580      -0.74740569       0.03822794
C        1.08151514      -0.68517604       0.06550714
H       -1.65139381      -0.33936966       0.85540743
H       -1.72470590      -0.45988238      -0.97443469
H        1.71979870      -0.43798840      -0.88271322
H        1.63808936      -0.42300709       0.81591844
7
Properties=species:S:1:pos:R:3 C2H4O=T energy=-4175.278570059272 dipole="-0.0 0.36428559175214825 -0.0" pbc="F F F"
O       -0.77260023       0.76627971      -0.03120891
C       -1.09976082      -0.60575431      -0.04014355
C        1.11304792      -0.68971216      -0.04629912
H       -1.66300425      -0.45106800       0.82639737
H       -1.73718861      -0.40596578      -0.78783951
H        1.75660794      -0.41471479      -0.95207042
H        1.67493703      -0.43607647       0.87683136
7
Properties=species:S:1:pos:R:3 C2H4O=T energy=-4175.278570059272 dipole="-0.0 0.36428559175214825 -0.0" pbc="F F F"
O       -0.81477559       0.82992224       0.01697483
C       -1.03063737      -0.65612904      -0.05965814
C        1.01939698      -0.67859287      -0.04246741
H       -1.57311715      -0.38230806       0.87135267
H       -1.61610827      -0.46678012      -0.93413175
H        1.64760724      -0.47027148      -0.84442090
H        1.68139775      -0.43877789       0.86224769
