7
Properties=species:S:1:pos:R:3 C2H4O=T energy=-4175.278570059272 dipole="-0.0 0.36428559175214825 -0.0" pbc="F F F"
O        0.02357202       0.24582542       0.07163588
C       -1.05035570      -0.67633318       0.04435841
C        1.07770179      -0.67213023       0.00078503
H       -1.75636505      -0.39873977       0.94405448
H       -1.59656337      -0.55730457      -0.91116153
H        1.64433577      -0.43596910      -0.88000242
H        1.71028892      -0.53358652       0.88432417
7
Properties=species:S:1:pos:R:3 C2H4O=T energy=-4175.278570059272 dipole="-0.0 0.36428559175214825 -0.0" pbc="F F F"
O       -0.03279821       0.31504527       0.02767248
C       -0.96881553      -0.66376900       0.03377796
C        0.94387101      -0.64945948       0.05294867
H       -1.66412281      -0.43936968       0.94683611
H       -1.59193267      -0.41305597      -0.90056224
H        1.65046550      -0.47238151      -0.85237328
H        1.76377904      -0.45243126       0.86613419
7
Properties=species:S:1:pos:R:3 C2H4O=T energy=-4175.278570059272 dipole="-0.0 0.36428559175214825 -0.0" pbc="F F F"
O        0.00180736       0.20162532       0.01239014
C       -1.07958095      -0.64714348       0.00091472
C        1.07249307      -0.62954062       0.04205065
H       -1.71652130      -0.52634022       0.88941127
H       -1.67164170      -0.46347281      -0.87675664
H        1.64245420      -0.42795485      -0.81717408
H        1.59551919      -0.45975848       0.90985493
7
Properties=species:S:1:pos:R:3 C2H4O=T energy=-4175.278570059272 dipole="-0.0 0.36428559175214825 -0.0" pbc="F F F"
O       -0.01042468       0.35706424      -0.12002215
C       -0.93319293      -0.69743530       0.01059443
C        1.06995840      -0.67957581       0.02310320
H       -1.60901939      -0.43006616       0.84814446
H       -1.54383743      -0.44489370      -0.95209062
H        1.67582882      -0.45426614      -0.87123740
H        1.46605518      -0.39018596       0.90208802
7
Properties=species:S:1:pos:R:3 C2H4O=T energy=-4175.278570059272 dipole="-0.0 0.36428559175214825 -0.0" pbc="F F F"
O        0.00822674       0.28386942       0.03836897
C       -0.98547712      -0.62676195       0.06959957
C        1.03871449      -0.66030228      -0.05139232
H       -1.67346671      -0.41541186       0.89035983
H       -1.66146788      -0.42982742      -0.94790710
H        1.61863578      -0.44168150      -0.86613034
H        1.66941060      -0.44197646       0.91867090
7
Properties=species:S:1:pos:R:3 C2H4O=T energy=-4175.278570059272 dipole="-0.0 0.36428559175214825 -0.0" pbc="F F F"
O        0.06817434       0.26631894      -0.02340035
C       -0.97349439      -0.70435915       0.04377404
C        0.94918660      -0.66284231       0.03745840
H       -1.65442744      -0.46535033       0.92848998
H       -1.73515453      -0.45388825      -0.87471545
H        1.63180825      -0.48712710      -0.92860122
H        1.66604389      -0.54139188       0.91414202
7
Properties=species:S:1:pos:R:3 C2H4O=T energy=-4175.278570059272 dipole="-0.0 0.36428559175214825 -0.0" pbc="F F F"
O       -0.02396594       0.29042339       0.03470569
C       -1.00079163      -0.62832594       0.00756159
C        1.07552873      -0.54562733       0.03198185
H       -1.69233224      -0.56050484       0.99096952
H       -1.73099702      -0.39572264      -0.85458589
H        1.62523931      -0.42111366      -0.93697433
H        1.70307163      -0.48245805       0.92950188
7
Properties=species:S:1:pos:R:3 C2H4O=T energy=-4175.278570059272 dipole="-0.0 0.36428559175214825 -0.0" pbc="F F F"
O        0.04920966       0.29928778       0.11828896
C       -1.00991596      -0.60047400      -0.02370078
C        1.03188758      -0.57241419      -0.04024148
H       -1.75041181      -0.47291668       0.85012121
H       -1.62751968      -0.42940264      -0.93164918
H        1.62821966      -0.50205171      -0.93744043
H        1.65553028      -0.42480245       0.90378121
7
Properties=species:S:1:pos:R:3 C2H4O=T energy=-4175.278570059272 dipole="-0.0 0.36428559175214825 -0.0" pbc="F F F"
O        0.04762418       0.35478108      -0.00362989
C       -1.06225326      -0.68721137      -0.06195332
C        1.04170653      -0.65145500       0.10618480
H       -1.63811713      -0.52671315       0.96560648
H       -1.75162233      -0.52361846      -0.87627943
H        1.64349224      -0.39262202      -0.96693535
H        1.58445482      -0.48583439       0.87373125
7
Properties=species:S:1:pos:R:3 C2H4O=T energy=-4175.278570059272 dipole="-0.0 0.36428559175214825 -0.0" pbc="F F F"
O       -0.07128948       0.31584394      -0.02964377
C       -1.10837893      -0.68513277       0.05521784
C        1.01314489      -0.64836090       0.04445808
H       -1.62981196      -0.50881851       0.87847911
H       -1.67522923      -0.44839191      -0.92303043
H        1.69711151      -0.49581621      -0.92068839
H        1.64782491      -0.36070327       0.93385472
7
Properties=species:S:1:pos:R:3 C2H4O=T energy=-4175.278570059272 dipole="-0.0 0.36428559175214825 -0.0" pbc="F F F"
O        0.02565437       0.27805339       0.05219776
C       -0.92933385      -0.56730737       0.05077053
C        1.07218160      -0.67408012       0.02201353
H       -1.60978221      -0.47007387       0.99068385
H       -1.62366938      -0.41170358      -0.88313950
H        1.54029896      -0.47563608      -0.89881237
H        1.70055030      -0.44388565       0.90051508
7
Properties=species:S:1:pos:R:3 C2H4O=T energy=-4175.278570059272 dipole="-0.0 0.36428559175214825 -0.0" pbc="F F F"
O        0.01494946       0.29751924      -0.03702292
C       -1.09710576      -0.62783098       0.02905393
C        1.17291457      -0.62033778       0.03342462
H       -1.65801949      -0.43121741       0.93761042
H       -1.69681097      -0.52584453      -0.83676155
H        1.70332706      -0.43667320      -0.93850937
H        1.65898501      -0.36305119       0.80884279
7
Properties=species:S:1:pos:R:3 C2H4O=T energy=-4175.278570059272 dipole="-0.0 0.36428559175214825 -0.0" pbc="F F F"
O       -0.07035397       0.31171326       0.00018852
C       -1.09817282      -0.68224589       0.02769632
C        1.00952023      -0.67972606       0.07647024
H       -1.63395806      -0.44059090       0.93778322
H       -1.62927605      -0.40241480      -0.87629879
H        1.73891384      -0.48052941      -0.87507330
H        1.64540889      -0.48925272       0.87852224
7
Properties=species:S:1:pos:R:3 C2H4O=T energy=-4175.278570059272 dipole="-0.0 0.36428559175214825 -0.0" pbc="F F F"
O       -0.03613285       0.31424354       0.04917617
C       -1.03354788      -0.61261489       0.01768872
C        1.02094269      -0.66482823      -0.01872162
H       -1.76410600      -0.37919006       0.89761141
H       -1.65845161      -0.51952186      -0.80505868
H        1.62650441      -0.46147983      -0.87514434
H        1.68536978      -0.49043073       0.94731666
7
Properties=species:S:1:pos:R:3 C2H4O=T energy=-4175.278570059272 dipole="-0.0 0.36428559175214825 -0.0" pbc="F F F"
O        0.00159426       0.37253332      -0.00252645
C       -1.05292361      -0.71797086      -0.01596463
C        1.06107469      -0.60474843      -0.01087706
H       -1.51234124      -0.54334844       0.88973544
H       -1.57267039      -0.42660391      -0.88594282
H        1.55664455      -0.44181270      -0.92158600
H        1.65281113      -0.40710035       0.89318904
7
Properties=species:S:1:pos:R:3 C2H4O=T energy=-4175.278570059272 dipole="-0.0 0.36428559175214825 -0.0" pbc="F F F"
O       -0.01437736       0.35159634      -0.00306178
C       -1.07127478      -0.69144243       0.04979991
C        1.08250027      -0.60461201       0.00666876
H       -1.68458272      -0.47334210       0.98989616
H       -1.63643342      -0.41825920      -0.91560797
H        1.65331349      -0.44251714      -0.89106140
H        1.64238187      -0.46478129       0.90780515
7
Properties=species:S:1:pos:R:3 C2H4O=T energy=-4175.278570059272 dipole="-0.0 0.36428559175214825 -0.0" pbc="F F F"
O        0.06915012       0.30425116       0.00657030
C       -1.01300125      -0.62707704       0.02828318
C        1.06397658      -0.64901896      -0.05356822
H       -1.64665383      -0.49850608       0.91521221
H       -1.62295305      -0.50527805      -0.91584897
H        1.71915835      -0.47424960      -0.91736904
H        1.57733259      -0.45831057       0.93550889
7
Properties=species:S:1:pos:R:3 C2H4O=T energy=-4175.278570059272 dipole="-0.0 0.36428559175214825 -0.0" pbc="F F F"
O        0.10489030       0.36952086       0.01351743
C       -0.98456609      -0.58637006       0.01703789
C        1.02481862      -0.51623113       0.06926295
H       -1.70196085      -0.51964501       0.92485029
H       -1.69823440      -0.48680591      -0.88935590
H        1.57240115      -0.44570592      -0.93930223
H        1.55801136      -0.36662428       0.82882085
7
Properties=species:S:1:pos:R:3 C2H4O=T energy=-4175.278570059272 dipole="-0.0 0.36428559175214825 -0.0" pbc="F F F"
O        0.02779413       0.27128013       0.07863767
C       -1.03995569      -0.54778385      -0.01666726
C        1.04439558      -0.66514130       0.05163637
H       -1.73122099      -0.49403467       0.85040159
H       -1.62453497      -0.50374311      -0.87783233
H        1.67067707      -0.51226782      -0.89204381
H        1.64733043      -0.50761702       0.88253972
7
Properties=species:S:1:pos:R:3 C2H4O=T energy=-4175.278570059272 dipole="-0.0 0.36428559175214825 -0.0" pbc="F F F"
O        0.09660917       0.29404259      -0.04619101
C       -1.01693116      -0.70380691      -0.00977336
C        1.01155140      -0.59083331       0.06943258
H       -1.58984511      -0.43430150       0.84637707
H       -1.58194908      -0.43109555      -0.92602760
H        1.60901725      -0.46826590      -0.86517705
H        1.66187104      -0.54701912       0.84895030
7
Properties=species:S:1:pos:R:3 C2H4O=T energy=-4175.278570059272 dipole="-0.0 0.36428559175214825 -0.0" pbc="F F F"
O       -0.03742614       0.29996795       0.01373947
C       -1.02285562      -0.65329592      -0.01562185
C        1.05714786      -0.64328065      -0.02350053
H       -1.62675246      -0.50761500       0.87912526
H       -1.57392077      -0.51872667      -0.97246510
H        1.72209973      -0.48590959      -0.90297145
H        1.72786235      -0.48328123       0.86025007
7
Properties=species:S:1:pos:R:3 C2H4O=T energy=-4175.278570059272 dipole="-0.0 0.36428559175214825 -0.0" pbc="F F F"
O        0.02999836       0.29451424       0.01657686
C       -1.05389134      -0.67939454       0.01331213
C        1.04869377      -0.70128533      -0.03619724
H       -1.73096972      -0.44265852       0.89941278
H       -1.66238408      -0.48565317      -0.89316057
H        1.61561473      -0.40096242      -0.95485780
H        1.57724596      -0.35248197       0.81998600
7
Properties=species:S:1:pos:R:3 C2H4O=T energy=-4175.278570059272 dipole="-0.0 0.36428559175214825 -0.0" pbc="F F F"
O       -0.05754739       0.32632719       0.02067079
C       -0.99884426      -0.62721750      -0.01213830
C        1.00965896      -0.67521050       0.06922922
H       -1.65855207      -0.43123808       0.99201234
H       -1.65814795      -0.45440252      -0.87216503
H        1.57371231      -0.43374170      -0.86868304
H        1.58652681      -0.52524991       0.86966484
7
Properties=species:S:1:pos:R:3 C2H4O=T energy=-4175.278570059272 dipole="-0.0 0.36428559175214825 -0.0" pbc="F F F"
O       -0.02066369       0.21940837      -0.00147752
C       -1.07302510      -0.63530964      -0.03565094
C        0.92341649      -0.60401834       0.04584902
H       -1.67242531      -0.53235054       0.89374324
H       -1.65656562      -0.46450830      -0.88850196
H        1.54048083      -0.50637953      -0.86827972
H        1.68530688      -0.46367833       0.89218797
7
Properties=species:S:1:pos:R:3 C2H4O=T energy=-4175.278570059272 dipole="-0.0 0.36428559175214825 -0.0" pbc="F F F"
O       -0.03522439       0.39188998       0.01144689
C       -0.98008606      -0.65798232      -0.00153268
C        1.02471378      -0.66436956       0.08557151
H       -1.57246145      -0.51461758       0.89649935
H       -1.62612867      -0.42761222      -0.83923465
H        1.62294625      -0.41845733      -0.89394295
H        1.65546030      -0.51297665       0.84688044
7
Properties=species:S:1:pos:R:3 C2H4O=T energy=-4175.278570059272 dipole="-0.0 0.36428559175214825 -0.0" pbc="F F F"
O       -0.00635626       0.30682142       0.10520440
C       -0.95634740      -0.67151522      -0.02003195
C        0.97786929      -0.68546200      -0.05486369
H       -1.64779626      -0.52220851       0.86645253
H       -1.63598185      -0.48782112      -0.93781115
H        1.59410172      -0.39587436      -0.80885767
H        1.61300154      -0.46684853       0.83477828
7
Properties=species:S:1:pos:R:3 C2H4O=T energy=-4175.278570059272 dipole="-0.0 0.36428559175214825 -0.0" pbc="F F F"
O        0.03287955       0.31537819       0.05456352
C       -1.05917421      -0.57189273       0.04458152
C        1.07660068      -0.61459681      -0.00250227
H       -1.60703316      -0.54244407       0.89895226
H       -1.62809260      -0.47509930      -0.89446870
H        1.69673553      -0.46467673      -0.85456320
H        1.67185723      -0.51389590       0.97653410
7
Properties=species:S:1:pos:R:3 C2H4O=T energy=-4175.278570059272 dipole="-0.0 0.36428559175214825 -0.0" pbc="F F F"
O       -0.07194863       0.40676118      -0.06826534
C       -1.03111567      -0.60964616       0.07445858
C        1.04578720      -0.71684866       0.04009462
H       -1.66545414      -0.40029881       0.97293458
H       -1.57284299      -0.52483372      -0.90777855
H        1.68319058      -0.46138248      -0.92378025
H        1.65624364      -0.50614402       0.90401499
7
Properties=species:S:1:pos:R:3 C2H4O=T energy=-4175.278570059272 dipole="-0.0 0.36428559175214825 -0.0" pbc="F F F"
O       -0.04763989       0.37892403       0.03594578
C       -1.04305109      -0.60207318      -0.05947191
C        1.00797951      -0.64138394      -0.05525937
H       -1.69702812      -0.40517378       0.97993998
H       -1.64275148      -0.45004973      -0.87998616
H        1.62915524      -0.43552002      -0.84696412
H        1.67032344      -0.55470438       0.91959699
7
Properties=species:S:1:pos:R:3 C2H4O=T energy=-4175.278570059272 dipole="-0.0 0.36428559175214825 -0.0" pbc="F F F"
O       -0.01772086       0.28302468      -0.05584839
C       -1.07413643      -0.58751613      -0.06522680
C        1.06170913      -0.62295449       0.04370985
H       -1.72298977      -0.46424074       0.86229052
H       -1.67999812      -0.37126888      -0.83031580
H        1.62160197      -0.43655176      -0.87316999
H        1.63772864      -0.47592790       0.86240350
7
Properties=species:S:1:pos:R:3 C2H4O=T energy=-4175.278570059272 dipole="-0.0 0.36428559175214825 -0.0" pbc="F F F"
O        0.00859847       0.26336675       0.04325045
C       -1.04496618      -0.64565741      -0.01210507
C        0.98959823      -0.60041051      -0.01445458
H       -1.61038192      -0.47340076       0.91881769
H       -1.60594631      -0.56627005      -1.02426078
H        1.66801359      -0.53598605      -0.94996086
H        1.59431069      -0.57003157       0.97209685
7
Properties=species:S:1:pos:R:3 C2H4O=T energy=-4175.278570059272 dipole="-0.0 0.36428559175214825 -0.0" pbc="F F F"
O       -0.05746468       0.31480073       0.04944872
C       -1.11402993      -0.66392278      -0.00944206
C        1.04527872      -0.55971794       0.02833673
H       -1.67628966      -0.37930286       0.90994038
H       -1.66667201      -0.36778680      -0.88104764
H        1.57111860      -0.36370126      -0.80941854
H        1.66190056      -0.43941679       0.94731176
7
Properties=species:S:1:pos:R:3 C2H4O=T energy=-4175.278570059272 dipole="-0.0 0.36428559175214825 -0.0" pbc="F F F"
O        0.05993420       0.17564149      -0.03573674
C       -0.99450581      -0.58072097      -0.00636801
C        0.98097361      -0.56789059      -0.01391750
H       -1.69607173      -0.44616899       0.91954497
H       -1.56356283      -0.55112736      -0.82950353
H        1.67188907      -0.46625988      -0.86717352
H        1.65734534      -0.44528773       0.94107414
7
Properties=species:S:1:pos:R:3 C2H4O=T energy=-4175.278570059272 dipole="-0.0 0.36428559175214825 -0.0" pbc="F F F"
O        0.08715288       0.29913902       0.04770211
C       -0.99912056      -0.66927057      -0.03809071
C        1.11779748      -0.51291946      -0.00194541
H       -1.66205126      -0.54936999       1.02705714
H       -1.65104110      -0.45105436      -0.88868605
H        1.65716337      -0.38185460      -0.82173985
H        1.67944642      -0.38292367       0.91213760
7
Properties=species:S:1:pos:R:3 C2H4O=T energy=-4175.278570059272 dipole="-0.0 0.36428559175214825 -0.0" pbc="F F F"
O       -0.05427591       0.32353469      -0.09066333
C       -1.04461865      -0.61866001      -0.02702803
C        1.04950390      -0.53631184      -0.09212144
H       -1.66978910      -0.48528832       0.94759400
H       -1.64332682      -0.45510191      -0.97844723
H        1.68485100      -0.48753621      -0.95697056
H        1.67498778      -0.46231097       0.83041173
7
Properties=species:S:1:pos:R:3 C2H4O=T energy=-4175.278570059272 dipole="-0.0 0.36428559175214825 -0.0" pbc="F F F"
O        0.01623075       0.33890267       0.00745860
C       -1.01836992      -0.65795182      -0.04527612
C        1.11853164      -0.60625425      -0.03518567
H       -1.63912681      -0.39648875       0.88055921
H       -1.64683784      -0.43855765      -0.91487320
H        1.55370837      -0.50140717      -0.84175477
H        1.59518717      -0.43863730       0.92775558
7
Properties=species:S:1:pos:R:3 C2H4O=T energy=-4175.278570059272 dipole="-0.0 0.36428559175214825 -0.0" pbc="F F F"
O        0.05327534       0.29395252       0.01822473
C       -1.11046544      -0.64406680      -0.01485264
C        0.99835165      -0.65259782      -0.00639724
H       -1.66269633      -0.58739177       1.00024972
H       -1.60995150      -0.46411403      -0.82539327
H        1.64765118      -0.44061496      -0.87174436
H        1.60480742      -0.45953326       0.82353250
7
Properties=species:S:1:pos:R:3 C2H4O=T energy=-4175.278570059272 dipole="-0.0 0.36428559175214825 -0.0" pbc="F F F"
O       -0.00698741       0.27760646      -0.02509536
C       -1.00006718      -0.65257176      -0.06347133
C        1.02160618      -0.52342413      -0.03908566
H       -1.64022581      -0.52321212       0.91512973
H       -1.63400698      -0.43231917      -0.89297861
H        1.63510775      -0.45536844      -0.79174254
H        1.51763684      -0.43505051       0.84667231
7
Properties=species:S:1:pos:R:3 C2H4O=T energy=-4175.278570059272 dipole="-0.0 0.36428559175214825 -0.0" pbc="F F F"
O       -0.00668345       0.25150403       0.06249566
C       -1.00616567      -0.62545132       0.04359352
C        1.02653681      -0.60582789       0.09922971
H       -1.65014489      -0.40848506       0.83542954
H       -1.57070588      -0.45731972      -0.85891459
H        1.60363810      -0.56880242      -0.95076203
H        1.62883767      -0.50433547       0.92799779
7
Properties=species:S:1:pos:R:3 C2H4O=T energy=-4175.278570059272 dipole="-0.0 0.36428559175214825 -0.0" pbc="F F F"
O        0.00316943       0.27253441      -0.01441763
C       -1.04571278      -0.63029134      -0.04227475
C        1.16686850      -0.65699129      -0.00727521
H       -1.59956236      -0.39181382       0.91101709
H       -1.64799797      -0.45929921      -0.80165482
H        1.60657779      -0.47325306      -0.92200682
H        1.61402914      -0.35011174       0.89547177
7
Properties=species:S:1:pos:R:3 C2H4O=T energy=-4175.278570059272 dipole="-0.0 0.36428559175214825 -0.0" pbc="F F F"
O       -0.04331274       0.28757978      -0.04771659
C       -0.95514990      -0.64027437      -0.02320133
C        0.95853683      -0.63256053      -0.04203226
H       -1.64369651      -0.48342858       0.92822995
H       -1.69289669      -0.41532442      -0.90025852
H        1.60968694      -0.40429400      -0.84539343
H        1.67506205      -0.49561559       0.89549933
7
Properties=species:S:1:pos:R:3 C2H4O=T energy=-4175.278570059272 dipole="-0.0 0.36428559175214825 -0.0" pbc="F F F"
O        0.02996726       0.28646444      -0.00277291
C       -0.93554871      -0.63640934       0.02022948
C        0.99227189      -0.64420854      -0.02636540
H       -1.65636520      -0.40089407       0.89268068
H       -1.69222533      -0.48768938      -0.88103192
H        1.66864789      -0.42689984      -0.90322666
H        1.62255970      -0.45405764       0.77601184
7
Properties=species:S:1:pos:R:3 C2H4O=T energy=-4175.278570059272 dipole="-0.0 0.36428559175214825 -0.0" pbc="F F F"
O       -0.07963580       0.18329066      -0.01313616
C       -1.07585403      -0.64241716      -0.01956325
C        1.04625139      -0.62387586       0.04190264
H       -1.68962488      -0.45832884       0.79474040
H       -1.63882137      -0.48570611      -0.94370667
H        1.59242098      -0.35425747      -0.92739487
H        1.61383183      -0.41291859       0.85738302
7
Properties=species:S:1:pos:R:3 C2H4O=T energy=-4175.278570059272 dipole="-0.0 0.36428559175214825 -0.0" pbc="F F F"
O       -0.07352781       0.34079791      -0.00642509
C       -1.04275510      -0.58644523      -0.03066961
C        0.99913419      -0.63703212      -0.02107333
H       -1.66129164      -0.39063973       0.80331056
H       -1.63346078      -0.48977750      -0.88147179
H        1.66770732      -0.43163011      -0.86884849
H        1.58713000      -0.46198593       0.95775524
7
Properties=species:S:1:pos:R:3 C2H4O=T energy=-4175.278570059272 dipole="-0.0 0.36428559175214825 -0.0" pbc="F F F"
O       -0.04646124       0.31491997       0.05007831
C       -1.03959418      -0.74628359      -0.10984583
C        1.09083576      -0.53971195       0.01510075
H       -1.66871388      -0.48191901       0.84076113
H       -1.53405385      -0.47118325      -0.82715274
H        1.67557087      -0.45953231      -0.98665028
H        1.64972964      -0.35591318       0.85656396
7
Properties=species:S:1:pos:R:3 C2H4O=T energy=-4175.278570059272 dipole="-0.0 0.36428559175214825 -0.0" pbc="F F F"
O        0.05080015       0.22574954       0.01461886
C       -0.96787150      -0.65246644      -0.01155092
C        1.01777591      -0.62437325       0.06985215
H       -1.68822145      -0.45065054       0.91603559
H       -1.56354033      -0.47111106      -0.81250954
H        1.65093468      -0.44763990      -0.96270788
H        1.62316773      -0.41220923       0.82082816
7
Properties=species:S:1:pos:R:3 C2H4O=T energy=-4175.278570059272 dipole="-0.0 0.36428559175214825 -0.0" pbc="F F F"
O        0.03788575       0.27354395      -0.00079138
C       -1.05411385      -0.59582057       0.05670812
C        1.12130388      -0.67558004      -0.06429031
H       -1.67614130      -0.42120232       0.93851421
H       -1.67688977      -0.52224013      -0.93539329
H        1.65236496      -0.42275377      -0.92316104
H        1.68141537      -0.42540561       0.94304983
7
Properties=species:S:1:pos:R:3 C2H4O=T energy=-4175.278570059272 dipole="-0.0 0.36428559175214825 -0.0" pbc="F F F"
O       -0.03559492       0.26858956      -0.04817266
C       -1.01176622      -0.60749183       0.03757543
C        0.94111319      -0.66811805       0.01360841
H       -1.59765351      -0.43986494       0.93149787
H       -1.68432483      -0.53535223      -0.97546717
H        1.64655794      -0.54023321      -0.82466240
H        1.60198244      -0.41554089       0.89196937
7
Properties=species:S:1:pos:R:3 C2H4O=T energy=-4175.278570059272 dipole="-0.0 0.36428559175214825 -0.0" pbc="F F F"
O        0.02671260       0.26502374       0.04208257
C       -1.06263174      -0.67176161       0.05888362
C        0.99246833      -0.65437600       0.08599806
H       -1.69810578      -0.52515564       0.87969996
H       -1.56278679      -0.47511371      -0.89311976
H        1.59811794      -0.52707964      -0.85128062
H        1.63401072      -0.56173324       0.86815229
7
Properties=species:S:1:pos:R:3 C2H4O=T energy=-4175.278570059272 dipole="-0.0 0.36428559175214825 -0.0" pbc="F F F"
O        0.00261906       0.21816452       0.00276148
C       -1.01304944      -0.64280670      -0.03252536
C        1.07958807      -0.70886709       0.01264813
H       -1.66863138      -0.42437305       0.79998196
H       -1.73032215      -0.48075403      -0.85064613
H        1.61929952      -0.42206163      -0.87607080
H        1.69784595      -0.45441224       0.90246770
