7
Properties=species:S:1:pos:R:3 C2H4O=T energy=-4175.278570059272 dipole="-0.0 0.36428559175214825 -0.0" pbc="F F F"
O       -1.25828555       0.77749219      -0.03120694
C       -1.05549856      -0.69007720      -0.04515404
C        1.02562521      -0.57680145       0.02969670
H       -1.63125924      -0.48714877       0.94564873
H       -1.60743745      -0.48789916      -0.84987394
H        1.65646047      -0.48954681      -0.93234905
H        1.69136963      -0.44492800       0.87010274
7
Properties=species:S:1:pos:R:3 C2H4O=T energy=-4175.278570059272 dipole="-0.0 0.36428559175214825 -0.0" pbc="F F F"
O       -1.22583161       0.76480102      -0.07921725
C       -0.99723210      -0.65103322       0.00787329
C        1.06747530      -0.66764854       0.07437763
H       -1.68700233      -0.49773639       0.91843132
H       -1.69861655      -0.41725664      -0.83544028
H        1.62495391      -0.54385307      -0.82610919
H        1.63856683      -0.52441630       0.96666563
7
Properties=species:S:1:pos:R:3 C2H4O=T energy=-4175.278570059272 dipole="-0.0 0.36428559175214825 -0.0" pbc="F F F"
O       -1.21105281       0.68745637      -0.07304217
C       -1.01191583      -0.63866825      -0.00950583
C        1.05031743      -0.67814191       0.01016908
H       -1.72847146      -0.44039041       0.94017311
H       -1.63792802      -0.52755662      -0.85250965
H        1.62538786      -0.43690756      -0.86235538
H        1.60699847      -0.36198598       0.87960546
7
Properties=species:S:1:pos:R:3 C2H4O=T energy=-4175.278570059272 dipole="-0.0 0.36428559175214825 -0.0" pbc="F F F"
O       -1.32157592       0.63312331      -0.02754086
C       -1.07302071      -0.67941521       0.03193141
C        1.03478849      -0.64971379      -0.08107075
H       -1.65992191      -0.51422241       0.86072070
H       -1.65071292      -0.43331122      -0.89365683
H        1.62288986      -0.45418075      -0.88177630
H        1.55982672      -0.49413623       0.94218734
7
Properties=species:S:1:pos:R:3 C2H4O=T energy=-4175.278570059272 dipole="-0.0 0.36428559175214825 -0.0" pbc="F F F"
O       -1.32166597       0.72246144       0.07097108
C       -1.00197427      -0.63681820       0.02761522
C        0.98956998      -0.63287442      -0.08990076
H       -1.68798153      -0.47601127       0.87699776
H       -1.68335864      -0.53202555      -0.92898006
H        1.61271457      -0.46446469      -0.90145375
H        1.63146110      -0.46199763       0.86534326
7
Properties=species:S:1:pos:R:3 C2H4O=T energy=-4175.278570059272 dipole="-0.0 0.36428559175214825 -0.0" pbc="F F F"
O       -1.14781170       0.74922813       0.04481546
C       -1.00314147      -0.66514105       0.00586394
C        0.94911987      -0.64757459      -0.04837117
H       -1.55060168      -0.43189680       0.84718548
H       -1.69535043      -0.48447728      -0.84061920
H        1.65209345      -0.35231519      -0.96200323
H        1.69755570      -0.47893062       0.84985922
7
Properties=species:S:1:pos:R:3 C2H4O=T energy=-4175.278570059272 dipole="-0.0 0.36428559175214825 -0.0" pbc="F F F"
O       -1.26093699       0.72525476      -0.07803698
C       -1.08708477      -0.61145864      -0.02742500
C        0.98951297      -0.52960347       0.00724636
H       -1.71903803      -0.44395254       0.92714782
H       -1.70074603      -0.47423368      -0.92428984
H        1.58415747      -0.57462471      -1.02395159
H        1.63596884      -0.45389921       0.96424787
7
Properties=species:S:1:pos:R:3 C2H4O=T energy=-4175.278570059272 dipole="-0.0 0.36428559175214825 -0.0" pbc="F F F"
O       -1.27543350       0.82640631      -0.02930363
C       -1.05315908      -0.74117672      -0.00281566
C        1.10355386      -0.65275026      -0.07957818
H       -1.73401164      -0.51736817       0.89233202
H       -1.59487258      -0.50867952      -0.85557971
H        1.69246246      -0.43866971      -0.96927760
H        1.64348556      -0.49807796       0.86565435
7
Properties=species:S:1:pos:R:3 C2H4O=T energy=-4175.278570059272 dipole="-0.0 0.36428559175214825 -0.0" pbc="F F F"
O       -1.17779048       0.82439881      -0.02710591
C       -1.01284536      -0.60629942      -0.05302273
C        1.03463272      -0.62537518       0.01334975
H       -1.65301332      -0.39319969       0.94080430
H       -1.56376395      -0.49864003      -0.88364371
H        1.71183144      -0.45983202      -0.88358059
H        1.62236116      -0.48432352       0.91653807
7
Properties=species:S:1:pos:R:3 C2H4O=T energy=-4175.278570059272 dipole="-0.0 0.36428559175214825 -0.0" pbc="F F F"
O       -1.32477812       0.67477894       0.02208162
C       -1.03508231      -0.71038204       0.00365333
C        1.09468104      -0.56080784       0.00577558
H       -1.64739313      -0.40690196       0.82496400
H       -1.60246912      -0.45918482      -0.97282157
H        1.66859221      -0.49561888      -0.84463546
H        1.52739415      -0.49281794       0.92103846
