7
Properties=species:S:1:pos:R:3 C2H4O=T energy=-4175.278570059272 dipole="-0.0 0.36428559175214825 -0.0" pbc="F F F"
O       -1.56603866       0.70661219       0.05513471
C       -1.06033200      -0.65357473      -0.08085004
C        1.02114665      -0.59302634      -0.03134943
H       -1.65752816      -0.42187688       0.99688003
H       -1.66730753      -0.42184946      -0.84405153
H        1.63640440      -0.41123789      -0.84443345
H        1.67864976      -0.55029603       0.93745440
7
Properties=species:S:1:pos:R:3 C2H4O=T energy=-4175.278570059272 dipole="-0.0 0.36428559175214825 -0.0" pbc="F F F"
O       -1.46813387       0.69045945       0.00139164
C       -1.14408599      -0.63356655      -0.03407252
C        0.91360282      -0.61924536      -0.03386652
H       -1.70124152      -0.44201076       0.86734511
H       -1.62105361      -0.49932623      -0.85073055
H        1.61701692      -0.43774347      -0.91620408
H        1.69973716      -0.52430958       0.88768081
7
Properties=species:S:1:pos:R:3 C2H4O=T energy=-4175.278570059272 dipole="-0.0 0.36428559175214825 -0.0" pbc="F F F"
O       -1.54175761       0.67445282       0.04436607
C       -0.97699077      -0.63451539      -0.05807576
C        1.02549079      -0.61695485      -0.10004907
H       -1.71161872      -0.46727297       0.89050886
H       -1.67462194      -0.51852852      -0.81296794
H        1.65310628      -0.48984110      -0.87790061
H        1.74453315      -0.45593400       0.81772196
7
Properties=species:S:1:pos:R:3 C2H4O=T energy=-4175.278570059272 dipole="-0.0 0.36428559175214825 -0.0" pbc="F F F"
O       -1.51763967       0.68831368      -0.12563015
C       -0.89958748      -0.61112121       0.01693935
C        1.06917244      -0.55528662      -0.02206315
H       -1.62850611      -0.42442668       0.89879575
H       -1.65011916      -0.52003550      -0.84911986
H        1.64453298      -0.49884695      -0.86947765
H        1.56859055      -0.35602671       0.95739777
7
Properties=species:S:1:pos:R:3 C2H4O=T energy=-4175.278570059272 dipole="-0.0 0.36428559175214825 -0.0" pbc="F F F"
O       -1.46214876       0.72949839       0.04857919
C       -1.11404267      -0.66583283      -0.04394839
C        0.97794637      -0.61545371       0.07551150
H       -1.59819412      -0.42427096       0.95530920
H       -1.63646696      -0.45578037      -0.90319175
H        1.66292167      -0.39013443      -0.83904308
H        1.62959690      -0.40805358       0.94263231
7
Properties=species:S:1:pos:R:3 C2H4O=T energy=-4175.278570059272 dipole="-0.0 0.36428559175214825 -0.0" pbc="F F F"
O       -1.50221249       0.77365486       0.02460823
C       -1.09904945      -0.68833366       0.04914039
C        1.01623744      -0.56411152      -0.02198781
H       -1.65680652      -0.44179359       0.86964236
H       -1.68365669      -0.45727538      -0.89554671
H        1.69099478      -0.48526964      -0.93447163
H        1.63124493      -0.48702395       0.82632562
7
Properties=species:S:1:pos:R:3 C2H4O=T energy=-4175.278570059272 dipole="-0.0 0.36428559175214825 -0.0" pbc="F F F"
O       -1.55470166       0.62268467      -0.10355934
C       -1.01151958      -0.66462371       0.06320318
C        1.11361391      -0.66309940      -0.03587783
H       -1.69887530      -0.38532182       0.95224714
H       -1.61409836      -0.49680631      -0.85948675
H        1.54668702      -0.45889680      -0.89774926
H        1.55012476      -0.33017952       0.89317578
7
Properties=species:S:1:pos:R:3 C2H4O=T energy=-4175.278570059272 dipole="-0.0 0.36428559175214825 -0.0" pbc="F F F"
O       -1.49530647       0.67159655      -0.01072867
C       -1.07845330      -0.64123432      -0.02370360
C        1.07753127      -0.58954680      -0.04594514
H       -1.62935814      -0.41181123       0.88985450
H       -1.66591938      -0.37934224      -0.91205963
H        1.59365589      -0.37138917      -0.86621759
H        1.69195656      -0.39822823       0.89678935
7
Properties=species:S:1:pos:R:3 C2H4O=T energy=-4175.278570059272 dipole="-0.0 0.36428559175214825 -0.0" pbc="F F F"
O       -1.64272908       0.64088407      -0.02326591
C       -1.07126102      -0.65150080      -0.03397169
C        1.03349396      -0.60511122      -0.02056531
H       -1.66128981      -0.41842438       0.88077066
H       -1.68705307      -0.47671339      -0.94985108
H        1.57368966      -0.48131121      -0.96784110
H        1.66914691      -0.48804134       0.95950372
7
Properties=species:S:1:pos:R:3 C2H4O=T energy=-4175.278570059272 dipole="-0.0 0.36428559175214825 -0.0" pbc="F F F"
O       -1.53639359       0.71652160       0.05666594
C       -1.03755035      -0.65957517       0.04783824
C        1.16036163      -0.68082915      -0.02987300
H       -1.76343711      -0.42932018       0.88067536
H       -1.64443484      -0.51852971      -0.89824972
H        1.68988781      -0.49553860      -0.85809867
H        1.63031137      -0.45398817       0.94853419
