7
Properties=species:S:1:pos:R:3 C2H4O=T energy=-4175.278570059272 dipole="-0.0 0.36428559175214825 -0.0" pbc="F F F"
O        0.01985242       0.34269610      -0.03120710
C       -1.05549856      -0.69007720      -0.04515404
C        1.02562521      -0.57680145       0.02969670
H       -1.63125924      -0.48714877       0.94564873
H       -1.60743745      -0.48789916      -0.84987394
H        1.65646047      -0.48954681      -0.93234905
H        1.69136963      -0.44492800       0.87010274
7
Properties=species:S:1:pos:R:3 C2H4O=T energy=-4175.278570059272 dipole="-0.0 0.36428559175214825 -0.0" pbc="F F F"
O        0.05230636       0.33000493      -0.07921741
C       -0.99723210      -0.65103322       0.00787329
C        1.06747530      -0.66764854       0.07437763
H       -1.68700233      -0.49773639       0.91843132
H       -1.69861655      -0.41725664      -0.83544028
H        1.62495391      -0.54385307      -0.82610919
H        1.63856683      -0.52441630       0.96666563
7
Properties=species:S:1:pos:R:3 C2H4O=T energy=-4175.278570059272 dipole="-0.0 0.36428559175214825 -0.0" pbc="F F F"
O        0.06708516       0.25266028      -0.07304234
C       -1.01191583      -0.63866825      -0.00950583
C        1.05031743      -0.67814191       0.01016908
H       -1.72847146      -0.44039041       0.94017311
H       -1.63792802      -0.52755662      -0.85250965
H        1.62538786      -0.43690756      -0.86235538
H        1.60699847      -0.36198598       0.87960546
7
Properties=species:S:1:pos:R:3 C2H4O=T energy=-4175.278570059272 dipole="-0.0 0.36428559175214825 -0.0" pbc="F F F"
O       -0.04343795       0.19832722      -0.02754103
C       -1.07302071      -0.67941521       0.03193141
C        1.03478849      -0.64971379      -0.08107075
H       -1.65992191      -0.51422241       0.86072070
H       -1.65071292      -0.43331122      -0.89365683
H        1.62288986      -0.45418075      -0.88177630
H        1.55982672      -0.49413623       0.94218734
7
Properties=species:S:1:pos:R:3 C2H4O=T energy=-4175.278570059272 dipole="-0.0 0.36428559175214825 -0.0" pbc="F F F"
O       -0.04352799       0.28766535       0.07097092
C       -1.00197427      -0.63681820       0.02761522
C        0.98956998      -0.63287442      -0.08990076
H       -1.68798153      -0.47601127       0.87699776
H       -1.68335864      -0.53202555      -0.92898006
H        1.61271457      -0.46446469      -0.90145375
H        1.63146110      -0.46199763       0.86534326
7
Properties=species:S:1:pos:R:3 C2H4O=T energy=-4175.278570059272 dipole="-0.0 0.36428559175214825 -0.0" pbc="F F F"
O        0.13032627       0.31443204       0.04481529
C       -1.00314147      -0.66514105       0.00586394
C        0.94911987      -0.64757459      -0.04837117
H       -1.55060168      -0.43189680       0.84718548
H       -1.69535043      -0.48447728      -0.84061920
H        1.65209345      -0.35231519      -0.96200323
H        1.69755570      -0.47893062       0.84985922
7
Properties=species:S:1:pos:R:3 C2H4O=T energy=-4175.278570059272 dipole="-0.0 0.36428559175214825 -0.0" pbc="F F F"
O        0.01720098       0.29045867      -0.07803715
C       -1.08708477      -0.61145864      -0.02742500
C        0.98951297      -0.52960347       0.00724636
H       -1.71903803      -0.44395254       0.92714782
H       -1.70074603      -0.47423368      -0.92428984
H        1.58415747      -0.57462471      -1.02395159
H        1.63596884      -0.45389921       0.96424787
7
Properties=species:S:1:pos:R:3 C2H4O=T energy=-4175.278570059272 dipole="-0.0 0.36428559175214825 -0.0" pbc="F F F"
O        0.00270447       0.39161022      -0.02930380
C       -1.05315908      -0.74117672      -0.00281566
C        1.10355386      -0.65275026      -0.07957818
H       -1.73401164      -0.51736817       0.89233202
H       -1.59487258      -0.50867952      -0.85557971
H        1.69246246      -0.43866971      -0.96927760
H        1.64348556      -0.49807796       0.86565435
7
Properties=species:S:1:pos:R:3 C2H4O=T energy=-4175.278570059272 dipole="-0.0 0.36428559175214825 -0.0" pbc="F F F"
O        0.10034749       0.38960272      -0.02710608
C       -1.01284536      -0.60629942      -0.05302273
C        1.03463272      -0.62537518       0.01334975
H       -1.65301332      -0.39319969       0.94080430
H       -1.56376395      -0.49864003      -0.88364371
H        1.71183144      -0.45983202      -0.88358059
H        1.62236116      -0.48432352       0.91653807
7
Properties=species:S:1:pos:R:3 C2H4O=T energy=-4175.278570059272 dipole="-0.0 0.36428559175214825 -0.0" pbc="F F F"
O       -0.04664015       0.23998285       0.02208146
C       -1.03508231      -0.71038204       0.00365333
C        1.09468104      -0.56080784       0.00577558
H       -1.64739313      -0.40690196       0.82496400
H       -1.60246912      -0.45918482      -0.97282157
H        1.66859221      -0.49561888      -0.84463546
H        1.52739415      -0.49281794       0.92103846
7
Properties=species:S:1:pos:R:3 C2H4O=T energy=-4175.278570059272 dipole="-0.0 0.36428559175214825 -0.0" pbc="F F F"
O       -0.06200383       0.22427701       0.08341036
C       -0.98052428      -0.69375593      -0.02182741
C        1.04154103      -0.67937883      -0.05012672
H       -1.73082074      -0.43745503       0.96464117
H       -1.62645749      -0.39489582      -0.94751151
H        1.61647941      -0.34554545      -0.92077896
H        1.55834152      -0.40673719       0.87671519
7
Properties=species:S:1:pos:R:3 C2H4O=T energy=-4175.278570059272 dipole="-0.0 0.36428559175214825 -0.0" pbc="F F F"
O       -0.00629366       0.29249347       0.08404799
C       -1.05582070      -0.58737988       0.08567951
C        1.06106518      -0.56825071       0.02751050
H       -1.59486633      -0.42935200       0.81561716
H       -1.63921458      -0.37042700      -0.88989113
H        1.72006889      -0.41527815      -0.88577989
H        1.61806777      -0.46823745       0.91737592
7
Properties=species:S:1:pos:R:3 C2H4O=T energy=-4175.278570059272 dipole="-0.0 0.36428559175214825 -0.0" pbc="F F F"
O        0.00039165       0.37008433       0.07283623
C       -1.10701236      -0.56858813      -0.00837041
C        1.04476585      -0.60235739       0.11453319
H       -1.64191874      -0.44093435       0.83208370
H       -1.67001001      -0.42468614      -0.90133460
H        1.58800267      -0.40163050      -0.95166381
H        1.68863880      -0.51978433       0.89987282
7
Properties=species:S:1:pos:R:3 C2H4O=T energy=-4175.278570059272 dipole="-0.0 0.36428559175214825 -0.0" pbc="F F F"
O        0.01295654       0.31530388       0.00325362
C       -1.03892265      -0.66055621      -0.00209096
C        1.06115831      -0.65612558       0.03705970
H       -1.61849047      -0.49586395       0.91031401
H       -1.62576472      -0.49663990      -0.94170196
H        1.71515944      -0.38225536      -0.92499371
H        1.60985959      -0.42095796       0.78939528
7
Properties=species:S:1:pos:R:3 C2H4O=T energy=-4175.278570059272 dipole="-0.0 0.36428559175214825 -0.0" pbc="F F F"
O       -0.04366966       0.28436816       0.02953824
C       -1.01919558      -0.60812668      -0.00926728
C        1.02169994      -0.52220311       0.01590386
H       -1.66868612      -0.35680532       0.84374703
H       -1.62090620      -0.42214858      -0.93857472
H        1.65470150      -0.38918515      -0.90544622
H        1.74398591      -0.46798131       0.93426550
7
Properties=species:S:1:pos:R:3 C2H4O=T energy=-4175.278570059272 dipole="-0.0 0.36428559175214825 -0.0" pbc="F F F"
O        0.07145297       0.34631200       0.02714712
C       -1.04406709      -0.66931212      -0.03197739
C        0.99198634      -0.69127420      -0.03672972
H       -1.60876211      -0.53348499       0.93555159
H       -1.70936853      -0.47873689      -0.92888642
H        1.64183864      -0.50876764      -0.89232154
H        1.64657249      -0.48826167       0.82097163
7
Properties=species:S:1:pos:R:3 C2H4O=T energy=-4175.278570059272 dipole="-0.0 0.36428559175214825 -0.0" pbc="F F F"
O        0.03337163       0.34388348       0.00154543
C       -1.02430530      -0.62307512      -0.08574131
C        1.00396176      -0.58150939       0.04190545
H       -1.69338939      -0.38897006       0.92346558
H       -1.59412281      -0.49751097      -0.84944390
H        1.72021414      -0.40081533      -0.83544124
H        1.63544349      -0.42138680       0.95616625
7
Properties=species:S:1:pos:R:3 C2H4O=T energy=-4175.278570059272 dipole="-0.0 0.36428559175214825 -0.0" pbc="F F F"
O       -0.08723508       0.24223746      -0.04061961
C       -0.98342547      -0.57335035       0.03434595
C        0.96465102      -0.60847813      -0.08403469
H       -1.72480222      -0.37895989       0.94767061
H       -1.63134540      -0.44934344      -0.94039065
H        1.68501841      -0.41535298      -0.75099362
H        1.70621593      -0.49944391       0.79402017
7
Properties=species:S:1:pos:R:3 C2H4O=T energy=-4175.278570059272 dipole="-0.0 0.36428559175214825 -0.0" pbc="F F F"
O       -0.06825593       0.21040460       0.04528713
C       -0.99355793      -0.61444695      -0.06007297
C        1.04515645      -0.59516774       0.07202662
H       -1.61614809      -0.49242630       0.89039410
H       -1.62371965      -0.41912466      -0.87344533
H        1.63905957      -0.52149714      -0.85917150
H        1.57143801      -0.49282434       0.97789280
7
Properties=species:S:1:pos:R:3 C2H4O=T energy=-4175.278570059272 dipole="-0.0 0.36428559175214825 -0.0" pbc="F F F"
O       -0.05655762       0.29315128       0.00134616
C       -1.09049552      -0.67749365      -0.04032882
C        1.07634398      -0.66256560      -0.01171379
H       -1.64317360      -0.50178038       0.84141356
H       -1.73252496      -0.45710059      -0.78676710
H        1.67514960      -0.36532393      -0.83481040
H        1.64360806      -0.45385165       0.97579704
7
Properties=species:S:1:pos:R:3 C2H4O=T energy=-4175.278570059272 dipole="-0.0 0.36428559175214825 -0.0" pbc="F F F"
O       -0.01922630       0.26472289      -0.00875569
C       -1.03863339      -0.63698015      -0.02041159
C        1.01926236      -0.60896861       0.04743198
H       -1.58011194      -0.47248903       0.85731416
H       -1.65226325      -0.46260236      -0.86704526
H        1.65110807      -0.44557907      -0.90603050
H        1.61255062      -0.45023077       0.87614480
7
Properties=species:S:1:pos:R:3 C2H4O=T energy=-4175.278570059272 dipole="-0.0 0.36428559175214825 -0.0" pbc="F F F"
O       -0.00811356       0.28410215       0.02371482
C       -1.05575893      -0.58552053       0.03423822
C        1.15596433      -0.59616497       0.02083746
H       -1.58844091      -0.52838537       0.90832852
H       -1.62273342      -0.51763498      -0.88360640
H        1.58689626      -0.49299189      -0.80993021
H        1.70699528      -0.44328100       0.92378094
7
Properties=species:S:1:pos:R:3 C2H4O=T energy=-4175.278570059272 dipole="-0.0 0.36428559175214825 -0.0" pbc="F F F"
O        0.04452407       0.31931891      -0.09068809
C       -0.99748880      -0.62361097      -0.00183057
C        0.97326060      -0.55857777      -0.02912763
H       -1.57723923      -0.38725721       0.85956755
H       -1.54347045      -0.50181230      -0.83394725
H        1.64875089      -0.53367754      -0.94377862
H        1.61740431      -0.42163235       1.00585961
7
Properties=species:S:1:pos:R:3 C2H4O=T energy=-4175.278570059272 dipole="-0.0 0.36428559175214825 -0.0" pbc="F F F"
O        0.01591135       0.28826918      -0.08128960
C       -1.10684933      -0.59428633      -0.02098026
C        1.04458652      -0.60254216      -0.01085282
H       -1.66702301      -0.54815576       0.93111603
H       -1.56636880      -0.51139118      -0.86466059
H        1.70013080      -0.43301461      -0.94888886
H        1.60540106      -0.50374275       0.88067168
7
Properties=species:S:1:pos:R:3 C2H4O=T energy=-4175.278570059272 dipole="-0.0 0.36428559175214825 -0.0" pbc="F F F"
O        0.02776109       0.31689937      -0.03543771
C       -0.94236882      -0.63789235       0.02378619
C        0.98916024      -0.67649664       0.00806592
H       -1.54726952      -0.45392892       0.90566217
H       -1.61197843      -0.43793487      -0.86826952
H        1.62629231      -0.44236218      -0.90152211
H        1.68800152      -0.46620379       0.83086689
7
Properties=species:S:1:pos:R:3 C2H4O=T energy=-4175.278570059272 dipole="-0.0 0.36428559175214825 -0.0" pbc="F F F"
O        0.04841351       0.28819220       0.01066726
C       -1.04595722      -0.59075782       0.00018907
C        1.02099821      -0.60749031      -0.01080034
H       -1.54179518      -0.50741578       0.91850004
H       -1.62897749      -0.45979624      -0.91505406
H        1.65194216      -0.41338484      -0.84272241
H        1.65200261      -0.41246033       0.90929554
7
Properties=species:S:1:pos:R:3 C2H4O=T energy=-4175.278570059272 dipole="-0.0 0.36428559175214825 -0.0" pbc="F F F"
O        0.03833826       0.33035200       0.04706070
C       -0.97219203      -0.54991195       0.05273903
C        1.03638547      -0.74674741       0.02664860
H       -1.63745843      -0.43677943       0.82764128
H       -1.58821573      -0.49214484      -0.91868236
H        1.65685842      -0.44221074      -0.83286979
H        1.63817036      -0.51938329       0.92713263
7
Properties=species:S:1:pos:R:3 C2H4O=T energy=-4175.278570059272 dipole="-0.0 0.36428559175214825 -0.0" pbc="F F F"
O        0.00311910       0.36000996       0.08029313
C       -1.08385661      -0.54498155      -0.03620151
C        0.95545699      -0.58026546       0.02115241
H       -1.56018269      -0.47284358       0.87965285
H       -1.64392224      -0.42928436      -0.85807855
H        1.62595569      -0.43938770      -0.90875176
H        1.59339160      -0.43332738       0.95913825
7
Properties=species:S:1:pos:R:3 C2H4O=T energy=-4175.278570059272 dipole="-0.0 0.36428559175214825 -0.0" pbc="F F F"
O        0.08949821       0.33113159       0.06336448
C       -1.04612811      -0.65224142       0.02863665
C        1.11244606      -0.57312404      -0.02444165
H       -1.63850835      -0.44490586       0.97103342
H       -1.55395922      -0.45408093      -0.95603432
H        1.62384130      -0.36411385      -0.86666019
H        1.71557411      -0.47333409       0.95633991
7
Properties=species:S:1:pos:R:3 C2H4O=T energy=-4175.278570059272 dipole="-0.0 0.36428559175214825 -0.0" pbc="F F F"
O        0.07364504       0.29678421       0.06837609
C       -1.04735824      -0.67899013       0.03647614
C        1.00146310      -0.66415046       0.04407485
H       -1.70289372      -0.51373924       0.86018072
H       -1.56074933      -0.49875104      -1.00949688
H        1.65595556      -0.40733294      -0.79388569
H        1.62311263      -0.33949621       0.93224683
7
Properties=species:S:1:pos:R:3 C2H4O=T energy=-4175.278570059272 dipole="-0.0 0.36428559175214825 -0.0" pbc="F F F"
O        0.00541306       0.34816375       0.03957881
C       -1.00654238      -0.64527204       0.04052175
C        1.00777538      -0.68815801      -0.01264100
H       -1.63824939      -0.42656961       0.94462013
H       -1.59156999      -0.43416498      -0.92957500
H        1.63520391      -0.45894036      -0.90273733
H        1.67016979      -0.41422646       0.91681328
7
Properties=species:S:1:pos:R:3 C2H4O=T energy=-4175.278570059272 dipole="-0.0 0.36428559175214825 -0.0" pbc="F F F"
O        0.02474724       0.23949352       0.06409715
C       -1.04357326      -0.57564246      -0.01833680
C        1.08445141      -0.61652837      -0.00705560
H       -1.68080311      -0.39229844       0.86114001
H       -1.62403145      -0.43471062      -0.87886514
H        1.71959996      -0.38760858      -0.91783722
H        1.72896001      -0.42773337       0.87876790
7
Properties=species:S:1:pos:R:3 C2H4O=T energy=-4175.278570059272 dipole="-0.0 0.36428559175214825 -0.0" pbc="F F F"
O       -0.02656716       0.36460829      -0.06403292
C       -1.05899880      -0.63895155      -0.00439236
C        1.08960630      -0.66892165       0.00926473
H       -1.56539829      -0.43974259       0.79887071
H       -1.62713734      -0.48021810      -0.95174201
H        1.64339779      -0.60218188      -0.84532187
H        1.60739407      -0.43027417       0.94059330
7
Properties=species:S:1:pos:R:3 C2H4O=T energy=-4175.278570059272 dipole="-0.0 0.36428559175214825 -0.0" pbc="F F F"
O       -0.05928904       0.22869168       0.05835584
C       -0.95718048      -0.67921259      -0.07932942
C        1.07314157      -0.74612855      -0.09578107
H       -1.58084119      -0.43435525       0.84033176
H       -1.67841001      -0.52104520      -0.97365358
H        1.63109660      -0.49780306      -0.92561469
H        1.71993094      -0.41596346       0.83411656
7
Properties=species:S:1:pos:R:3 C2H4O=T energy=-4175.278570059272 dipole="-0.0 0.36428559175214825 -0.0" pbc="F F F"
O       -0.02415316       0.29209974      -0.01891967
C       -1.01185634      -0.63999743       0.01226038
C        1.02555897      -0.63891297       0.01613026
H       -1.63339052      -0.34655192       0.89763120
H       -1.72172096      -0.45794284      -0.98496133
H        1.57015550      -0.47323702      -0.86255322
H        1.51454243      -0.44279440       0.99218829
7
Properties=species:S:1:pos:R:3 C2H4O=T energy=-4175.278570059272 dipole="-0.0 0.36428559175214825 -0.0" pbc="F F F"
O       -0.08658667       0.36536577       0.01708134
C       -1.00897089      -0.62458524      -0.03228612
C        1.05271252      -0.58878484      -0.03180458
H       -1.56615540      -0.49277604       0.85721203
H       -1.72281817      -0.47299520      -0.85430552
H        1.66820652      -0.45057254      -0.90556540
H        1.63055673      -0.48495052       0.86398554
7
Properties=species:S:1:pos:R:3 C2H4O=T energy=-4175.278570059272 dipole="-0.0 0.36428559175214825 -0.0" pbc="F F F"
O       -0.01139501       0.21147260      -0.00039922
C       -1.09477762      -0.55830579       0.11328178
C        1.00079382      -0.66800229       0.02727654
H       -1.59615685      -0.39279457       0.89540935
H       -1.69329602      -0.38385278      -0.93268641
H        1.63208846      -0.42704371      -0.89597303
H        1.68494522      -0.42786488       0.90264453
7
Properties=species:S:1:pos:R:3 C2H4O=T energy=-4175.278570059272 dipole="-0.0 0.36428559175214825 -0.0" pbc="F F F"
O        0.02636938       0.27731141      -0.01391942
C       -1.11392714      -0.63340777      -0.03802793
C        1.08667795      -0.57688858       0.02223099
H       -1.61825981      -0.43937917       0.88226818
H       -1.56216375      -0.48535643      -0.87662428
H        1.58613032      -0.52983914      -0.90211540
H        1.60140676      -0.35795591       0.86079297
7
Properties=species:S:1:pos:R:3 C2H4O=T energy=-4175.278570059272 dipole="-0.0 0.36428559175214825 -0.0" pbc="F F F"
O       -0.02540066       0.31392299      -0.00938606
C       -1.09366190      -0.69096180       0.15552793
C        1.08163213      -0.62693844       0.03041790
H       -1.62562020      -0.50917328       0.99320207
H       -1.70072602      -0.46330241      -0.88533212
H        1.64471507      -0.44117411      -0.87430704
H        1.66518234      -0.44840963       0.86825167
7
Properties=species:S:1:pos:R:3 C2H4O=T energy=-4175.278570059272 dipole="-0.0 0.36428559175214825 -0.0" pbc="F F F"
O       -0.03749863       0.30555738      -0.01001387
C       -1.18697667      -0.58395851      -0.00137164
C        0.98188740      -0.60936376      -0.03406410
H       -1.64458140      -0.54879238       0.98372337
H       -1.62139071      -0.52953343      -0.91696303
H        1.66066577      -0.41974484      -0.91382261
H        1.65523733      -0.45588847       0.87960923
7
Properties=species:S:1:pos:R:3 C2H4O=T energy=-4175.278570059272 dipole="-0.0 0.36428559175214825 -0.0" pbc="F F F"
O        0.04992421       0.35667175       0.06327674
C       -1.07037433      -0.67020125       0.04913349
C        1.07725709      -0.61034908       0.02274917
H       -1.64537236      -0.43930627       0.90177925
H       -1.66645987      -0.38246714      -0.81689808
H        1.64373848      -0.44639019      -0.89925771
H        1.63983277      -0.47131395       0.94350063
7
Properties=species:S:1:pos:R:3 C2H4O=T energy=-4175.278570059272 dipole="-0.0 0.36428559175214825 -0.0" pbc="F F F"
O        0.02004609       0.21311440      -0.02803163
C       -1.08237445      -0.61238929       0.02098947
C        1.08654613      -0.58823685      -0.04881030
H       -1.58964745      -0.46393709       0.91212653
H       -1.65024028      -0.39428225      -0.94406580
H        1.66457244      -0.49258161      -0.89429961
H        1.71775230      -0.52221524       0.89243775
7
Properties=species:S:1:pos:R:3 C2H4O=T energy=-4175.278570059272 dipole="-0.0 0.36428559175214825 -0.0" pbc="F F F"
O       -0.07234891       0.36109371      -0.06354945
C       -0.94742824      -0.61703185      -0.03796274
C        0.96212086      -0.69602185       0.01841654
H       -1.66325143      -0.54919117       0.84717860
H       -1.58401866      -0.37462448      -1.00255499
H        1.69102660      -0.43032053      -0.89325262
H        1.65476906      -0.45148811       0.83382716
7
Properties=species:S:1:pos:R:3 C2H4O=T energy=-4175.278570059272 dipole="-0.0 0.36428559175214825 -0.0" pbc="F F F"
O        0.02983223       0.31400449       0.01330391
C       -0.96459532      -0.60091844       0.05200966
C        1.14597325      -0.72469767       0.02484495
H       -1.67165085      -0.50696234       0.83340369
H       -1.65928116      -0.57236914      -0.94908510
H        1.59679316      -0.52052569      -0.90258383
H        1.69101063      -0.45466199       0.97109210
7
Properties=species:S:1:pos:R:3 C2H4O=T energy=-4175.278570059272 dipole="-0.0 0.36428559175214825 -0.0" pbc="F F F"
O       -0.03355109       0.20367781      -0.06460004
C       -1.12177475      -0.59846704      -0.01415322
C        1.07768089      -0.60173828       0.09830674
H       -1.69820491      -0.45413837       0.91674661
H       -1.72340241      -0.50965349      -0.93585505
H        1.61230340      -0.38679184      -0.96930104
H        1.64554744      -0.48243418       0.98516244
7
Properties=species:S:1:pos:R:3 C2H4O=T energy=-4175.278570059272 dipole="-0.0 0.36428559175214825 -0.0" pbc="F F F"
O       -0.01508444       0.36259180      -0.01541852
C       -0.96859144      -0.62071085       0.03007484
C        0.93778853      -0.60849928      -0.06883398
H       -1.69211513      -0.44617470       0.86715462
H       -1.56332503      -0.46610492      -0.87753519
H        1.64116717      -0.39696390      -0.88086949
H        1.65544966      -0.38774449       0.79671531
7
Properties=species:S:1:pos:R:3 C2H4O=T energy=-4175.278570059272 dipole="-0.0 0.36428559175214825 -0.0" pbc="F F F"
O       -0.00723349       0.39717794       0.02725971
C       -1.05311905      -0.67260261      -0.08435748
C        1.04734171      -0.62797995      -0.02207417
H       -1.66491697      -0.41364454       0.92448620
H       -1.68096390      -0.51379497      -0.87765045
H        1.68079192      -0.49614380      -0.92822511
H        1.58714699      -0.56805984       0.91285189
7
Properties=species:S:1:pos:R:3 C2H4O=T energy=-4175.278570059272 dipole="-0.0 0.36428559175214825 -0.0" pbc="F F F"
O       -0.02238088       0.33604747      -0.01538110
C       -1.03133943      -0.72568901      -0.05804501
C        0.97083015      -0.67634677       0.09773596
H       -1.68532244      -0.53386479       0.89434138
H       -1.60064402      -0.45017607      -0.84098141
H        1.64966514      -0.46726807      -0.89965705
H        1.67670436      -0.46941082       0.95083149
7
Properties=species:S:1:pos:R:3 C2H4O=T energy=-4175.278570059272 dipole="-0.0 0.36428559175214825 -0.0" pbc="F F F"
O       -0.01841944       0.23722594      -0.04591599
C       -1.08052643      -0.70539516      -0.04792527
C        1.09336509      -0.64750402      -0.04817033
H       -1.65152401      -0.45346214       0.83781052
H       -1.63590956      -0.37839947      -0.87411448
H        1.51779856      -0.39463195      -0.91925409
H        1.63824629      -0.36098942       0.96367702
7
Properties=species:S:1:pos:R:3 C2H4O=T energy=-4175.278570059272 dipole="-0.0 0.36428559175214825 -0.0" pbc="F F F"
O        0.11262467       0.32429699      -0.09604329
C       -1.06351147      -0.63473275       0.00267903
C        1.02930040      -0.64690814      -0.06688612
H       -1.63269654      -0.37789233       0.91769125
H       -1.51208719      -0.46711091      -0.94526938
H        1.61600666      -0.43771320      -0.95493383
H        1.63126143      -0.41468057       0.88443316
