
                                 *****************
                                 * O   R   C   A *
                                 *****************

                                            #,                                       
                                            ###                                      
                                            ####                                     
                                            #####                                    
                                            ######                                   
                                           ########,                                 
                                     ,,################,,,,,                         
                               ,,#################################,,                 
                          ,,##########################################,,             
                       ,#########################################, ''#####,          
                    ,#############################################,,   '####,        
                  ,##################################################,,,,####,       
                ,###########''''           ''''###############################       
              ,#####''   ,,,,##########,,,,          '''####'''          '####       
            ,##' ,,,,###########################,,,                        '##       
           ' ,,###''''                  '''############,,,                           
         ,,##''                                '''############,,,,        ,,,,,,###''
      ,#''                                            '''#######################'''  
     '                                                          ''''####''''         
             ,#######,   #######,   ,#######,      ##                                
            ,#'     '#,  ##    ##  ,#'     '#,    #''#        ######   ,####,        
            ##       ##  ##   ,#'  ##            #'  '#       #        #'  '#        
            ##       ##  #######   ##           ,######,      #####,   #    #        
            '#,     ,#'  ##    ##  '#,     ,#' ,#      #,         ##   #,  ,#        
             '#######'   ##     ##  '#######'  #'      '#     #####' # '####'        



                  #######################################################
                  #                        -***-                        #
                  #          Department of theory and spectroscopy      #
                  #    Directorship and core code : Frank Neese         #
                  #        Max Planck Institute fuer Kohlenforschung    #
                  #                Kaiser Wilhelm Platz 1               #
                  #                 D-45470 Muelheim/Ruhr               #
                  #                      Germany                        #
                  #                                                     #
                  #                  All rights reserved                #
                  #                        -***-                        #
                  #######################################################


                         Program Version 5.0.2 -  RELEASE  -


 With contributions from (in alphabetic order):
   Daniel Aravena         : Magnetic Suceptibility
   Michael Atanasov       : Ab Initio Ligand Field Theory (pilot matlab implementation)
   Alexander A. Auer      : GIAO ZORA, VPT2 properties, NMR spectrum
   Ute Becker             : Parallelization
   Giovanni Bistoni       : ED, misc. LED, open-shell LED, HFLD
   Martin Brehm           : Molecular dynamics
   Dmytro Bykov           : SCF Hessian
   Vijay G. Chilkuri      : MRCI spin determinant printing, contributions to CSF-ICE
   Dipayan Datta          : RHF DLPNO-CCSD density
   Achintya Kumar Dutta   : EOM-CC, STEOM-CC
   Dmitry Ganyushin       : Spin-Orbit,Spin-Spin,Magnetic field MRCI
   Miquel Garcia          : C-PCM and meta-GGA Hessian, CC/C-PCM, Gaussian charge scheme
   Yang Guo               : DLPNO-NEVPT2, F12-NEVPT2, CIM, IAO-localization
   Andreas Hansen         : Spin unrestricted coupled pair/coupled cluster methods
   Benjamin Helmich-Paris : MC-RPA, TRAH-SCF, COSX integrals
   Lee Huntington         : MR-EOM, pCC
   Robert Izsak           : Overlap fitted RIJCOSX, COSX-SCS-MP3, EOM
   Marcus Kettner         : VPT2
   Christian Kollmar      : KDIIS, OOCD, Brueckner-CCSD(T), CCSD density, CASPT2, CASPT2-K
   Simone Kossmann        : Meta GGA functionals, TD-DFT gradient, OOMP2, MP2 Hessian
   Martin Krupicka        : Initial AUTO-CI
   Lucas Lang             : DCDCAS
   Marvin Lechner         : AUTO-CI (C++ implementation), FIC-MRCC
   Dagmar Lenk            : GEPOL surface, SMD
   Dimitrios Liakos       : Extrapolation schemes; Compound Job, initial MDCI parallelization
   Dimitrios Manganas     : Further ROCIS development; embedding schemes
   Dimitrios Pantazis     : SARC Basis sets
   Anastasios Papadopoulos: AUTO-CI, single reference methods and gradients
   Taras Petrenko         : DFT Hessian,TD-DFT gradient, ASA, ECA, R-Raman, ABS, FL, XAS/XES, NRVS
   Peter Pinski           : DLPNO-MP2, DLPNO-MP2 Gradient
   Christoph Reimann      : Effective Core Potentials
   Marius Retegan         : Local ZFS, SOC
   Christoph Riplinger    : Optimizer, TS searches, QM/MM, DLPNO-CCSD(T), (RO)-DLPNO pert. Triples
   Tobias Risthaus        : Range-separated hybrids, TD-DFT gradient, RPA, STAB
   Michael Roemelt        : Original ROCIS implementation
   Masaaki Saitow         : Open-shell DLPNO-CCSD energy and density
   Barbara Sandhoefer     : DKH picture change effects
   Avijit Sen             : IP-ROCIS
   Kantharuban Sivalingam : CASSCF convergence, NEVPT2, FIC-MRCI
   Bernardo de Souza      : ESD, SOC TD-DFT
   Georgi Stoychev        : AutoAux, RI-MP2 NMR, DLPNO-MP2 response
   Willem Van den Heuvel  : Paramagnetic NMR
   Boris Wezisla          : Elementary symmetry handling
   Frank Wennmohs         : Technical directorship


 We gratefully acknowledge several colleagues who have allowed us to
 interface, adapt or use parts of their codes:
   Stefan Grimme, W. Hujo, H. Kruse, P. Pracht,  : VdW corrections, initial TS optimization,
                  C. Bannwarth, S. Ehlert          DFT functionals, gCP, sTDA/sTD-DF
   Ed Valeev, F. Pavosevic, A. Kumar             : LibInt (2-el integral package), F12 methods
   Garnet Chan, S. Sharma, J. Yang, R. Olivares  : DMRG
   Ulf Ekstrom                                   : XCFun DFT Library
   Mihaly Kallay                                 : mrcc  (arbitrary order and MRCC methods)
   Jiri Pittner, Ondrej Demel                    : Mk-CCSD
   Frank Weinhold                                : gennbo (NPA and NBO analysis)
   Christopher J. Cramer and Donald G. Truhlar   : smd solvation model
   Lars Goerigk                                  : TD-DFT with DH, B97 family of functionals
   V. Asgeirsson, H. Jonsson                     : NEB implementation
   FAccTs GmbH                                   : IRC, NEB, NEB-TS, DLPNO-Multilevel, CI-OPT
                                                   MM, QMMM, 2- and 3-layer-ONIOM, Crystal-QMMM,
                                                   LR-CPCM, SF, NACMEs, symmetry and pop. for TD-DFT,
                                                   nearIR, NL-DFT gradient (VV10), updates on ESD,
                                                   ML-optimized integration grids
   S Lehtola, MJT Oliveira, MAL Marques          : LibXC Library
   Liviu Ungur et al                             : ANISO software


 Your calculation uses the libint2 library for the computation of 2-el integrals
 For citations please refer to: http://libint.valeyev.net

 Your ORCA version has been built with support for libXC version: 5.1.0
 For citations please refer to: https://tddft.org/programs/libxc/

 This ORCA versions uses:
   CBLAS   interface :  Fast vector & matrix operations
   LAPACKE interface :  Fast linear algebra routines
   SCALAPACK package :  Parallel linear algebra routines
   Shared memory     :  Shared parallel matrices
   BLAS/LAPACK       :  OpenBLAS 0.3.15  USE64BITINT DYNAMIC_ARCH NO_AFFINITY SkylakeX SINGLE_THREADED
        Core in use  :  SkylakeX
   Copyright (c) 2011-2014, The OpenBLAS Project


Your calculation utilizes the atom-pairwise dispersion correction
with the Becke-Johnson damping scheme (D3BJ)
Cite in your paper:
S.Grimme, S.Ehrlich, L.Goerigk, J Comput Chem, (2011), 32, 1456–1465 
S.Grimme, J.Antony, S.Ehrlich and H.Krieg, J.Chem.Phys., 132, (2010), 154104 
   

================================================================================

----- Orbital basis set information -----
Your calculation utilizes the basis: def2-TZVP
   F. Weigend and R. Ahlrichs, Phys. Chem. Chem. Phys. 7, 3297 (2005).

----- AuxJ basis set information -----
Your calculation utilizes the auxiliary basis: def2/J
   F. Weigend, Phys. Chem. Chem. Phys. 8, 1057 (2006).

================================================================================
                                        WARNINGS
                       Please study these warnings very carefully!
================================================================================


INFO   : the flag for use of the SHARK integral package has been found!

================================================================================
                                       INPUT FILE
================================================================================
NAME = ox_C.inp
|  1> ! engrad PBE0 D3BJ def2-TZVP  
|  2> %pal nprocs 4 end
|  3> %maxcore 3200
|  4>  
|  5> *xyz 0 1 
|  6> C   0.0 0.0 0.0
|  7> *
|  8> 
|  9>                          ****END OF INPUT****
================================================================================

                     *******************************
                     * Energy+Gradient Calculation *
                     *******************************

---------------------------------
CARTESIAN COORDINATES (ANGSTROEM)
---------------------------------
  C      0.000000    0.000000    0.000000

----------------------------
CARTESIAN COORDINATES (A.U.)
----------------------------
  NO LB      ZA    FRAG     MASS         X           Y           Z
   0 C     6.0000    0    12.011    0.000000    0.000000    0.000000

--------------------------------
INTERNAL COORDINATES (ANGSTROEM)
--------------------------------
 C      0   0   0     0.000000000000     0.00000000     0.00000000

---------------------------
INTERNAL COORDINATES (A.U.)
---------------------------
 C      0   0   0     0.000000000000     0.00000000     0.00000000

---------------------
BASIS SET INFORMATION
---------------------
There are 1 groups of distinct atoms

 Group   1 Type C   : 11s6p2d1f contracted to 5s3p2d1f pattern {62111/411/11/1}

Atom   0C    basis set group =>   1
---------------------------------
AUXILIARY/J BASIS SET INFORMATION
---------------------------------
There are 1 groups of distinct atoms

 Group   1 Type C   : 12s5p4d2f1g contracted to 6s4p3d1f1g pattern {711111/2111/211/2/1}

Atom   0C    basis set group =>   1


           ************************************************************
           *        Program running with 4 parallel MPI-processes     *
           *              working on a common directory               *
           ************************************************************
------------------------------------------------------------------------------
                           ORCA GTO INTEGRAL CALCULATION
                           -- RI-GTO INTEGRALS CHOSEN --
------------------------------------------------------------------------------
------------------------------------------------------------------------------
                   ___                                                        
                  /   \      - P O W E R E D   B Y -                         
                 /     \                                                     
                 |  |  |   _    _      __       _____    __    __             
                 |  |  |  | |  | |    /  \     |  _  \  |  |  /  |          
                  \  \/   | |  | |   /    \    | | | |  |  | /  /          
                 / \  \   | |__| |  /  /\  \   | |_| |  |  |/  /          
                |  |  |   |  __  | /  /__\  \  |    /   |      \           
                |  |  |   | |  | | |   __   |  |    \   |  |\   \          
                \     /   | |  | | |  |  |  |  | |\  \  |  | \   \       
                 \___/    |_|  |_| |__|  |__|  |_| \__\ |__|  \__/        
                                                                              
                      - O R C A' S   B I G   F R I E N D -                    
                                      &                                       
                       - I N T E G R A L  F E E D E R -                       
                                                                              
 v1 FN, 2020, v2 2021                                                         
------------------------------------------------------------------------------


Reading SHARK input file ox_C.SHARKINP.tmp ... ok
----------------------
SHARK INTEGRAL PACKAGE
----------------------

Number of atoms                             ...      1
Number of basis functions                   ...     31
Number of shells                            ...     11
Maximum angular momentum                    ...      3
Integral batch strategy                     ... SHARK/LIBINT Hybrid
RI-J (if used) integral strategy            ... SPLIT-RIJ (Revised 2003 algorithm where possible)
Printlevel                                  ...      1
Contraction scheme used                     ... SEGMENTED contraction
Coulomb Range Separation                    ... NOT USED
Exchange Range Separation                   ... NOT USED
Finite Nucleus Model                        ... NOT USED
Auxiliary Coulomb fitting basis             ... AVAILABLE
   # of basis functions in Aux-J            ...     49
   # of shells in Aux-J                     ...     15
   Maximum angular momentum in Aux-J        ...      4
Auxiliary J/K fitting basis                 ... NOT available
Auxiliary Correlation fitting basis         ... NOT available
Auxiliary 'external' fitting basis          ... NOT available
Integral threshold                          ...     2.500000e-11
Primitive cut-off                           ...     2.500000e-12
Primitive pair pre-selection threshold      ...     2.500000e-12

Calculating pre-screening integrals         ... done (  0.0 sec) Dimension = 11
Organizing shell pair data                  ... done (  0.0 sec)
Shell pair information
Total number of shell pairs                 ...        66
Shell pairs after pre-screening             ...        66
Total number of primitive shell pairs       ...       232
Primitive shell pairs kept                  ...       232
          la=0 lb=0:     15 shell pairs
          la=1 lb=0:     15 shell pairs
          la=1 lb=1:      6 shell pairs
          la=2 lb=0:     10 shell pairs
          la=2 lb=1:      6 shell pairs
          la=2 lb=2:      3 shell pairs
          la=3 lb=0:      5 shell pairs
          la=3 lb=1:      3 shell pairs
          la=3 lb=2:      2 shell pairs
          la=3 lb=3:      1 shell pairs

Calculating one electron integrals          ... done (  0.0 sec)
Calculating RI/J V-Matrix + Cholesky decomp.... done (  0.0 sec)
Calculating Nuclear repulsion               ... done (  0.0 sec) ENN=      0.000000000000 Eh

SHARK setup successfully completed in   0.2 seconds

Maximum memory used throughout the entire GTOINT-calculation: 13.7 MB


           ************************************************************
           *        Program running with 4 parallel MPI-processes     *
           *              working on a common directory               *
           ************************************************************
-------------------------------------------------------------------------------
                                 ORCA SCF
-------------------------------------------------------------------------------

------------
SCF SETTINGS
------------
Hamiltonian:
 Density Functional     Method          .... DFT(GTOs)
 Exchange Functional    Exchange        .... PBE
   PBE kappa parameter   XKappa         ....  0.804000
   PBE mue parameter    XMuePBE         ....  0.219520
 Correlation Functional Correlation     .... PBE
   PBE beta parameter  CBetaPBE         ....  0.066725
 LDA part of GGA corr.  LDAOpt          .... PW91-LDA
 Gradients option       PostSCFGGA      .... off
 Hybrid DFT is turned on
   Fraction HF Exchange ScalHFX         ....  0.250000
   Scaling of DF-GGA-X  ScalDFX         ....  0.750000
   Scaling of DF-GGA-C  ScalDFC         ....  1.000000
   Scaling of DF-LDA-C  ScalLDAC        ....  1.000000
   Perturbative correction              ....  0.000000
   Density functional embedding theory  .... OFF
   NL short-range parameter             ....  6.900000
 RI-approximation to the Coulomb term is turned on
   Number of AuxJ basis functions       .... 49
   RIJ-COSX (HFX calculated with COS-X)).... on


General Settings:
 Integral files         IntName         .... ox_C
 Hartree-Fock type      HFTyp           .... RHF
 Total Charge           Charge          ....    0
 Multiplicity           Mult            ....    1
 Number of Electrons    NEL             ....    6
 Basis Dimension        Dim             ....   31
 Nuclear Repulsion      ENuc            ....      0.0000000000 Eh

Convergence Acceleration:
 DIIS                   CNVDIIS         .... on
   Start iteration      DIISMaxIt       ....    12
   Startup error        DIISStart       ....  0.200000
   # of expansion vecs  DIISMaxEq       ....     5
   Bias factor          DIISBfac        ....   1.050
   Max. coefficient     DIISMaxC        ....  10.000
 Trust-Rad. Augm. Hess. CNVTRAH         .... auto
   Auto Start mean grad. ratio tolernc. ....  1.125000
   Auto Start start iteration           ....    20
   Auto Start num. interpolation iter.  ....    10
   Max. Number of Micro iterations      ....    16
   Max. Number of Macro iterations      .... Maxiter - #DIIS iter
   Number of Davidson start vectors     ....     2
   Converg. threshold I  (grad. norm)   ....   1.000e-05
   Converg. threshold II (energy diff.) ....   1.000e-08
   Grad. Scal. Fac. for Micro threshold ....   0.100
   Minimum threshold for Micro iter.    ....   0.010
   NR start threshold (gradient norm)   ....   0.001
   Initial trust radius                 ....   0.400
   Minimum AH scaling param. (alpha)    ....   1.000
   Maximum AH scaling param. (alpha)    .... 1000.000
   Orbital update algorithm             .... Taylor
   White noise on init. David. guess    .... on
   Maximum white noise                  ....   0.010
   Quad. conv. algorithm                .... NR
 SOSCF                  CNVSOSCF        .... on
   Start iteration      SOSCFMaxIt      ....   150
   Startup grad/error   SOSCFStart      ....  0.003300
 Level Shifting         CNVShift        .... on
   Level shift para.    LevelShift      ....    0.2500
   Turn off err/grad.   ShiftErr        ....    0.0010
 Zerner damping         CNVZerner       .... off
 Static damping         CNVDamp         .... on
   Fraction old density DampFac         ....    0.7000
   Max. Damping (<1)    DampMax         ....    0.9800
   Min. Damping (>=0)   DampMin         ....    0.0000
   Turn off err/grad.   DampErr         ....    0.1000
 Fernandez-Rico         CNVRico         .... off

SCF Procedure:
 Maximum # iterations   MaxIter         ....   125
 SCF integral mode      SCFMode         .... Direct
   Integral package                     .... SHARK and LIBINT hybrid scheme
 Reset frequency        DirectResetFreq ....    20
 Integral Threshold     Thresh          ....  2.500e-11 Eh
 Primitive CutOff       TCut            ....  2.500e-12 Eh

Convergence Tolerance:
 Convergence Check Mode ConvCheckMode   .... Total+1el-Energy
 Convergence forced     ConvForced      .... 0
 Energy Change          TolE            ....  1.000e-08 Eh
 1-El. energy change                    ....  1.000e-05 Eh
 Orbital Gradient       TolG            ....  1.000e-05
 Orbital Rotation angle TolX            ....  1.000e-05
 DIIS Error             TolErr          ....  5.000e-07


Diagonalization of the overlap matrix:
Smallest eigenvalue                        ... 2.860e-02
Time for diagonalization                   ...    0.041 sec
Threshold for overlap eigenvalues          ... 1.000e-08
Number of eigenvalues below threshold      ... 0
Time for construction of square roots      ...    0.002 sec
Total time needed                          ...    0.044 sec

Time for model grid setup =    0.022 sec

------------------------------
INITIAL GUESS: MODEL POTENTIAL
------------------------------
Loading Hartree-Fock densities                     ... done
Calculating cut-offs                               ... done
Initializing the effective Hamiltonian             ... done
Setting up the integral package (SHARK)            ... done
Starting the Coulomb interaction                   ... done (   0.0 sec)
Reading the grid                                   ... done
Mapping shells                                     ... done
Starting the XC term evaluation                    ... done (   0.0 sec)
  promolecular density results
     # of electrons  =      5.999999634
     EX              =     -4.928560317
     EC              =     -0.156739446
     EX+EC           =     -5.085299763
Transforming the Hamiltonian                       ... done (   0.0 sec)
Diagonalizing the Hamiltonian                      ... done (   0.0 sec)
Back transforming the eigenvectors                 ... done (   0.0 sec)
Now organizing SCF variables                       ... done
                      ------------------
                      INITIAL GUESS DONE (   0.1 sec)
                      ------------------
-------------------
DFT GRID GENERATION
-------------------

General Integration Accuracy     IntAcc      ... 4.388
Radial Grid Type                 RadialGrid  ... OptM3 with GC (2021)
Angular Grid (max. ang.)         AngularGrid ... 4 (Lebedev-302)
Angular grid pruning method      GridPruning ... 4 (adaptive)
Weight generation scheme         WeightScheme... Becke
Basis function cutoff            BFCut       ... 1.0000e-11
Integration weight cutoff        WCut        ... 1.0000e-14
Angular grids for H and He will be reduced by one unit
Partially contracted basis set               ... off
Rotationally invariant grid construction     ... off

Total number of grid points                  ...     6136
Total number of batches                      ...       96
Average number of points per batch           ...       63
Average number of grid points per atom       ...     6136
Time for grid setup =    0.019 sec

--------------------
COSX GRID GENERATION
--------------------

GRIDX 1
-------
General Integration Accuracy     IntAcc      ... 3.816
Radial Grid Type                 RadialGrid  ... OptM3 with GC (2021)
Angular Grid (max. ang.)         AngularGrid ... 1 (Lebedev-50)
Angular grid pruning method      GridPruning ... 4 (adaptive)
Weight generation scheme         WeightScheme... Becke
Basis function cutoff            BFCut       ... 1.0000e-11
Integration weight cutoff        WCut        ... 1.0000e-14
Angular grids for H and He will be reduced by one unit
Partially contracted basis set               ... on
Rotationally invariant grid construction     ... off

Total number of grid points                  ...      772
Total number of batches                      ...       13
Average number of points per batch           ...       59
Average number of grid points per atom       ...      772
UseSFitting                                  ... on

GRIDX 2
-------
General Integration Accuracy     IntAcc      ... 4.020
Radial Grid Type                 RadialGrid  ... OptM3 with GC (2021)
Angular Grid (max. ang.)         AngularGrid ... 2 (Lebedev-110)
Angular grid pruning method      GridPruning ... 4 (adaptive)
Weight generation scheme         WeightScheme... Becke
Basis function cutoff            BFCut       ... 1.0000e-11
Integration weight cutoff        WCut        ... 1.0000e-14
Angular grids for H and He will be reduced by one unit
Partially contracted basis set               ... on
Rotationally invariant grid construction     ... off

Total number of grid points                  ...     1892
Total number of batches                      ...       30
Average number of points per batch           ...       63
Average number of grid points per atom       ...     1892
UseSFitting                                  ... on

GRIDX 3
-------
General Integration Accuracy     IntAcc      ... 4.338
Radial Grid Type                 RadialGrid  ... OptM3 with GC (2021)
Angular Grid (max. ang.)         AngularGrid ... 3 (Lebedev-194)
Angular grid pruning method      GridPruning ... 4 (adaptive)
Weight generation scheme         WeightScheme... Becke
Basis function cutoff            BFCut       ... 1.0000e-11
Integration weight cutoff        WCut        ... 1.0000e-14
Angular grids for H and He will be reduced by one unit
Partially contracted basis set               ... on
Rotationally invariant grid construction     ... off

Total number of grid points                  ...     4224
Total number of batches                      ...       67
Average number of points per batch           ...       63
Average number of grid points per atom       ...     4224
UseSFitting                                  ... on

Time for X-Grid setup             =    0.011 sec

--------------
SCF ITERATIONS
--------------
ITER       Energy         Delta-E        Max-DP      RMS-DP      [F,P]     Damp
               ***  Starting incremental Fock matrix formation  ***
  0    -37.7306788411   0.000000000000 0.01034791  0.00066528  0.0426719 0.7000
  1    -37.7315559262  -0.000877085053 0.00728173  0.00055025  0.0313040 0.7000
                               ***Turning on DIIS***
  2    -37.7321151980  -0.000559271834 0.01361805  0.00123526  0.0222147 0.0000
  3    -37.7332272049  -0.001112006928 0.00726157  0.00042146  0.0066332 0.0000
                      *** Initiating the SOSCF procedure ***
                           *** Shutting down DIIS ***
                      *** Re-Reading the Fockian *** 
                      *** Removing any level shift *** 
ITER      Energy       Delta-E        Grad      Rot      Max-DP    RMS-DP
  4    -37.73327081  -0.0000436091  0.000526  0.000526  0.001344  0.000078
               *** Restarting incremental Fock matrix formation ***
  5    -37.73275470   0.0005161123  0.008736  0.006775  0.004050  0.000293
  6    -37.73292782  -0.0001731169  0.000562  0.000472  0.000545  0.000040
  7    -37.73292855  -0.0000007297  0.000063  0.000073  0.000165  0.000009
  8    -37.73292856  -0.0000000105  0.000025  0.000026  0.000040  0.000003
                 **** Energy Check signals convergence ****
              ***Rediagonalizing the Fockian in SOSCF/NRSCF***

               *****************************************************
               *                     SUCCESS                       *
               *           SCF CONVERGED AFTER   9 CYCLES          *
               *****************************************************

Old exchange energy                            =     -1.249691112 Eh
New exchange energy                            =     -1.249691183 Eh
Exchange energy change after final integration =     -0.000000072 Eh
Total energy after final integration           =    -37.732928633 Eh
Final COS-X integration done in                =     0.020 sec

----------------
TOTAL SCF ENERGY
----------------

Total Energy       :          -37.73292863 Eh           -1026.76519 eV

Components:
Nuclear Repulsion  :            0.00000000 Eh               0.00000 eV
Electronic Energy  :          -37.73292863 Eh           -1026.76519 eV
One Electron Energy:          -50.34104535 Eh           -1369.84949 eV
Two Electron Energy:           12.60811671 Eh             343.08430 eV
Max COSX asymmetry :            0.00000006 Eh               0.00000 eV

Virial components:
Potential Energy   :          -75.34563454 Eh           -2050.25895 eV
Kinetic Energy     :           37.61270590 Eh            1023.49376 eV
Virial Ratio       :            2.00319633


DFT components:
N(Alpha)           :        3.000001372985 electrons
N(Beta)            :        3.000001372985 electrons
N(Total)           :        6.000002745970 electrons
E(X)               :       -3.728127767889 Eh       
E(C)               :       -0.152845120637 Eh       
E(XC)              :       -3.880972888526 Eh       
DFET-embed. en.    :        0.000000000000 Eh       

---------------
SCF CONVERGENCE
---------------

  Last Energy change         ...   -2.6580e-09  Tolerance :   1.0000e-08
  Last MAX-Density change    ...    5.5511e-16  Tolerance :   1.0000e-07
  Last RMS-Density change    ...    2.4258e-17  Tolerance :   5.0000e-09
  Last Orbital Gradient      ...    4.1858e-07  Tolerance :   1.0000e-05
  Last Orbital Rotation      ...    5.1574e-06  Tolerance :   1.0000e-05

             **** THE GBW FILE WAS UPDATED (ox_C.gbw) ****
             **** DENSITY ox_C.scfp WAS UPDATED ****
             **** ENERGY FILE WAS UPDATED (ox_C.en.tmp) ****
             **** THE GBW FILE WAS UPDATED (ox_C.gbw) ****
             **** DENSITY ox_C.scfp WAS UPDATED ****
----------------
ORBITAL ENERGIES
----------------

  NO   OCC          E(Eh)            E(eV) 
   0   2.0000     -10.379532      -282.4414 
   1   2.0000      -0.564675       -15.3656 
   2   2.0000      -0.224405        -6.1064 
   3   0.0000      -0.143071        -3.8932 
   4   0.0000      -0.143070        -3.8931 
   5   0.0000       0.154777         4.2117 
   6   0.0000       0.242746         6.6055 
   7   0.0000       0.242747         6.6055 
   8   0.0000       0.245788         6.6882 
   9   0.0000       0.671377        18.2691 
  10   0.0000       0.671378        18.2691 
  11   0.0000       0.684034        18.6135 
  12   0.0000       0.684034        18.6135 
  13   0.0000       0.697611        18.9830 
  14   0.0000       1.228794        33.4372 
  15   0.0000       1.391003        37.8511 
  16   0.0000       1.391006        37.8512 
  17   0.0000       1.406346        38.2686 
  18   0.0000       2.637872        71.7802 
  19   0.0000       2.637872        71.7802 
  20   0.0000       2.659596        72.3713 
  21   0.0000       2.659598        72.3713 
  22   0.0000       2.682803        73.0028 
  23   0.0000       2.682804        73.0028 
  24   0.0000       2.689682        73.1900 
  25   0.0000       2.914683        79.3126 
  26   0.0000       2.914688        79.3127 
  27   0.0000       2.938295        79.9551 
  28   0.0000       2.938299        79.9552 
  29   0.0000       2.958956        80.5173 
  30   0.0000      21.215198       577.2949 

                    ********************************
                    * MULLIKEN POPULATION ANALYSIS *
                    ********************************

-----------------------
MULLIKEN ATOMIC CHARGES
-----------------------
   0 C :    0.000000
Sum of atomic charges:    0.0000000

--------------------------------
MULLIKEN REDUCED ORBITAL CHARGES
--------------------------------
  0 C s       :     3.999761  s :     3.999761
      pz      :     0.221303  p :     1.999773
      px      :     0.082412
      py      :     1.696058
      dz2     :     0.000027  d :     0.000239
      dxz     :     0.000003
      dyz     :     0.000067
      dx2y2   :     0.000117
      dxy     :     0.000025
      f0      :     0.000038  f :     0.000227
      f+1     :     0.000001
      f-1     :     0.000014
      f+2     :     0.000061
      f-2     :     0.000013
      f+3     :     0.000037
      f-3     :     0.000063


                     *******************************
                     * LOEWDIN POPULATION ANALYSIS *
                     *******************************

----------------------
LOEWDIN ATOMIC CHARGES
----------------------
   0 C :    0.000000

-------------------------------
LOEWDIN REDUCED ORBITAL CHARGES
-------------------------------
  0 C s       :     3.999761  s :     3.999761
      pz      :     0.221303  p :     1.999773
      px      :     0.082412
      py      :     1.696058
      dz2     :     0.000027  d :     0.000239
      dxz     :     0.000003
      dyz     :     0.000067
      dx2y2   :     0.000117
      dxy     :     0.000025
      f0      :     0.000038  f :     0.000227
      f+1     :     0.000001
      f-1     :     0.000014
      f+2     :     0.000061
      f-2     :     0.000013
      f+3     :     0.000037
      f-3     :     0.000063


                      *****************************
                      * MAYER POPULATION ANALYSIS *
                      *****************************

  NA   - Mulliken gross atomic population
  ZA   - Total nuclear charge
  QA   - Mulliken gross atomic charge
  VA   - Mayer's total valence
  BVA  - Mayer's bonded valence
  FA   - Mayer's free valence

  ATOM       NA         ZA         QA         VA         BVA        FA
  0 C      6.0000     6.0000     0.0000     0.0000     0.0000     0.0000

  Mayer bond orders larger than 0.100000



Warning: MO coefficients are modified such that the real solid harmonic m components
have the correct order within each shell (0, +1, -1, +2, -2, ...) and all s orbitals
come before all p orbitals etc. (with increasing orbital energy within each block of given angular momentum).

CleanUpVectors: The p-vectors have cracked symmetry
CleanUpVectors: The p-vectors have cracked symmetry
CleanUpVectors: The p-vectors have cracked symmetry
CleanUpVectors: The p-vectors have cracked symmetry
CleanUpVectors: The p-vectors have cracked symmetry
CleanUpVectors: The p-vectors have cracked symmetry
CleanUpVectors: The d-vectors have cracked symmetry at i=9
CleanUpVectors: The d-vectors have cracked symmetry at i=10
CleanUpVectors: The d-vectors have cracked symmetry at i=11
CleanUpVectors: The d-vectors have cracked symmetry at i=12
CleanUpVectors: The d-vectors have cracked symmetry at i=13
CleanUpVectors: The p-vectors have cracked symmetry
CleanUpVectors: The p-vectors have cracked symmetry
CleanUpVectors: The p-vectors have cracked symmetry
CleanUpVectors: The f-vectors have cracked symmetry
CleanUpVectors: The f-vectors have cracked symmetry
CleanUpVectors: The f-vectors have cracked symmetry
CleanUpVectors: The f-vectors have cracked symmetry
CleanUpVectors: The f-vectors have cracked symmetry
CleanUpVectors: The f-vectors have cracked symmetry
CleanUpVectors: The f-vectors have cracked symmetry
CleanUpVectors: The d-vectors have cracked symmetry at i=25
CleanUpVectors: The d-vectors have cracked symmetry at i=26
--------------------------
ATOM BASIS FOR ELEMENT C 
--------------------------
 NewGTO C 
 S 11
    1      13575.349682000000         0.000283259335
    2       2035.233368000000         0.002194271148
    3        463.225623590000         0.011365068061
    4        131.200195980000         0.045492994540
    5         42.853015891000         0.141035728594
    6         15.584185766000         0.309359979461
    7          6.206713850800         0.400390556817
    8          2.576489652700         0.229420868302
    9          0.576963394200         0.029281355211
   10          0.229728313600        -0.016270213232
   11          0.095164440000         0.005515363421
 S 11
    1      13575.349682000000         0.000069001457
    2       2035.233368000000         0.000534520450
    3        463.225623590000         0.002768509854
    4        131.200195980000         0.011082010507
    5         42.853015891000         0.034356046287
    6         15.584185766000         0.075359526836
    7          6.206713850800         0.161500441002
    8          2.576489652700         0.092538574587
    9          0.576963394200        -0.424027490995
   10          0.229728313600        -0.526242604764
   11          0.095164440000        -0.178459887145
 P 20
    1         34.697232244000         0.001761557446
    2          7.958262282600         0.011845556968
    3          2.378082688300         0.046953609501
    4          0.814332081800         0.113191945039
    5         34.697232244000         0.001074975687
    6          7.958262282600         0.007228651991
    7          2.378082688300         0.028653047190
    8          0.814332081800         0.069074437029
    9         34.697232244000         0.004876686675
   10          7.958262282600         0.032793179673
   11          2.378082688300         0.129986133775
   12          0.814332081800         0.313360005047
   13          0.288875472500         0.135814292423
   14          0.288875472500         0.082879120273
   15          0.288875472500         0.375985837887
   16          0.100568236700         0.108532381514
   17          0.100568236700         0.066230397334
   18          0.100568236700         0.300457949181
   19          0.761000000000         0.013199262113
   20          0.761000000000         0.001801698273
 S 11
    1      13575.349682000000        -0.000034500059
    2       2035.233368000000        -0.000267255035
    3        463.225623590000        -0.001384228047
    4        131.200195980000        -0.005540897655
    5         42.853015891000        -0.017177689570
    6         15.584185766000        -0.037679031728
    7          6.206713850800        -0.071975057552
    8          2.576489652700        -0.041241182936
    9          0.576963394200        -0.048656701389
   10          0.229728313600         1.850282245042
   11          0.095164440000        -2.073700104191
 S 11
    1      13575.349682000000        -0.000080755059
    2       2035.233368000000        -0.000625569840
    3        463.225623590000        -0.003240093557
    4        131.200195980000        -0.012969703103
    5         42.853015891000        -0.040208202280
    6         15.584185766000        -0.088196152533
    7          6.206713850800        -0.267654105743
    8          2.576489652700        -0.153363850118
    9          0.576963394200         2.868775087111
   10          0.229728313600        -3.913846397390
   11          0.095164440000         1.672519118982
 P 20
    1         34.697232244000        -0.000638950176
    2          7.958262282600        -0.004296607371
    3          2.378082688300        -0.017030961501
    4          0.814332081800        -0.041056857581
    5         34.697232244000         0.003408561895
    6          7.958262282600         0.022920804659
    7          2.378082688300         0.090853854685
    8          0.814332081800         0.219023087584
    9         34.697232244000        -0.000520491656
   10          7.958262282600        -0.003500035482
   11          2.378082688300        -0.013873497019
   12          0.814332081800        -0.033445098870
   13          0.288875472500        -0.141490878204
   14          0.288875472500         0.754801551801
   15          0.288875472500        -0.115259354724
   16          0.100568236700         0.231823250634
   17          0.100568236700        -1.236692774382
   18          0.100568236700         0.188843898466
   19          0.761000000000        -0.000525687368
   20          0.761000000000         0.001471547320
 D 13
    1          6.206713850800         0.000000001603
    2          0.576963394200        -0.000000254522
    3          0.229728313600         0.000001106931
    4          1.097000000000        -0.003529348895
    5          1.097000000000        -0.008751219519
    6          1.097000000000         0.003401279539
    7          1.097000000000         0.003684896887
    8          1.097000000000         0.001899705693
    9          0.318000000000         0.327048876526
   10          0.318000000000         0.810932543061
   11          0.318000000000        -0.315163077031
   12          0.318000000000        -0.341467407041
   13          0.318000000000        -0.176030724278
 P 20
    1         34.697232244000        -0.002933914804
    2          7.958262282600        -0.019729050017
    3          2.378082688300        -0.078202326228
    4          0.814332081800        -0.188523811191
    5         34.697232244000         0.013834401617
    6          7.958262282600         0.093029150361
    7          2.378082688300         0.368750444585
    8          0.814332081800         0.888953596974
    9         34.697232244000        -0.001989562399
   10          7.958262282600        -0.013378771611
   11          2.378082688300        -0.053030990398
   12          0.814332081800        -0.127842800891
   13          0.288875472500         0.346527275998
   14          0.288875472500        -1.633994113990
   15          0.288875472500         0.234988697012
   16          0.100568236700        -0.159265346682
   17          0.100568236700         0.750990300700
   18          0.100568236700        -0.108001752178
   19          0.761000000000         0.000767983016
   20          0.761000000000        -0.001945510334
 F 20
    1         34.697232244000         0.000000000053
    2          7.958262282600         0.000000001545
    3          2.378082688300         0.000000020492
    4          0.814332081800         0.000000144261
    5         34.697232244000        -0.000000000081
    6          7.958262282600        -0.000000002379
    7          2.378082688300        -0.000000031553
    8          0.814332081800        -0.000000222133
    9         34.697232244000        -0.000000000017
   10          7.958262282600        -0.000000000508
   11          2.378082688300        -0.000000006741
   12          0.814332081800        -0.000000047456
   13          0.288875472500        -0.000000495802
   14          0.288875472500         0.000000730602
   15          0.761000000000         0.619750682116
   16          0.761000000000         0.241242302115
   17          0.761000000000        -0.327339842680
   18          0.761000000000        -0.601385444543
   19          0.761000000000         0.128134327167
   20          0.761000000000        -0.052350305032
 D 20
    1      13575.349682000000        -0.000000000000
    2       2035.233368000000        -0.000000000000
    3        463.225623590000        -0.000000000003
    4        131.200195980000        -0.000000000037
    5         42.853015891000        -0.000000000350
    6         15.584185766000        -0.000000002109
    7          6.206713850800        -0.000000013942
    8          2.576489652700        -0.000000019244
    9          0.576963394200         0.000001353849
   10          0.229728313600        -0.000003445014
   11          0.095164440000         0.000002831455
   12          1.097000000000         0.440903077331
   13          1.097000000000         0.912238487878
   14          1.097000000000        -0.384894784826
   15          1.097000000000        -0.432858680362
   16          1.097000000000        -0.177960645165
   17          0.318000000000        -0.230940878887
   18          0.318000000000        -0.477821919377
   19          0.318000000000         0.201604224108
   20          0.318000000000         0.226727300444
 S 20
    1      13575.349682000000         0.000834577129
    2       2035.233368000000         0.006465059713
    3        463.225623590000         0.033485307280
    4        131.200195980000         0.134037639996
    5         42.853015891000         0.415538620993
    6         15.584185766000         0.911478393008
    7          6.206713850800        -1.090016346955
    8          2.576489652700        -0.624571415396
    9          0.576963394200         1.306696997885
   10          0.229728313600        -1.132293357663
   11          0.095164440000         0.415546988273
   12          1.097000000000        -0.000996232403
   13          1.097000000000         0.000348800136
   14          1.097000000000         0.001582615149
   15          1.097000000000        -0.002084069340
   16          1.097000000000         0.000965742888
   17          0.318000000000         0.000105814510
   18          0.318000000000        -0.000037047563
   19          0.318000000000        -0.000168096566
   20          0.318000000000         0.000221358035
 end
-------
TIMINGS
-------

Total SCF time: 0 days 0 hours 0 min 0 sec 

Total time                  ....       0.906 sec
Sum of individual times     ....       0.702 sec  ( 77.4%)

Fock matrix formation       ....       0.603 sec  ( 66.5%)
  Split-RI-J                ....       0.300 sec  ( 49.8% of F)
  Chain of spheres X        ....       0.196 sec  ( 32.5% of F)
  XC integration            ....       0.021 sec  (  3.5% of F)
    Basis function eval.    ....       0.005 sec  ( 23.6% of XC)
    Density eval.           ....       0.003 sec  ( 15.0% of XC)
    XC-Functional eval.     ....       0.004 sec  ( 20.4% of XC)
    XC-Potential eval.      ....       0.003 sec  ( 16.5% of XC)
Diagonalization             ....       0.002 sec  (  0.2%)
Density matrix formation    ....       0.000 sec  (  0.0%)
Population analysis         ....       0.001 sec  (  0.1%)
Initial guess               ....       0.039 sec  (  4.3%)
Orbital Transformation      ....       0.000 sec  (  0.0%)
Orbital Orthonormalization  ....       0.000 sec  (  0.0%)
DIIS solution               ....       0.002 sec  (  0.3%)
SOSCF solution              ....       0.002 sec  (  0.2%)
Grid generation             ....       0.052 sec  (  5.8%)

Maximum memory used throughout the entire SCF-calculation: 57.2 MB


-------------------------------------------------------------------------------
                          DFT DISPERSION CORRECTION                            
                                                                               
                              DFTD3 V3.1  Rev 1                                
                          USING Becke-Johnson damping                          
-------------------------------------------------------------------------------
The PBE0 functional is recognized
Active option DFTDOPT                   ...         4   

molecular C6(AA) [au] = 48.991680 


            DFT-D V3
 parameters
 s6 scaling factor         :     1.0000 
 a1 scaling factor         :     0.4145 
 s8 scaling factor         :     1.2177 
 a2 scaling factor         :     4.8593 
 ad hoc parameters k1-k3   :    16.0000     1.3333    -4.0000 

 Edisp/kcal,au: -0.000000000000  -0.000000000000 
 E6   /kcal   :  -0.000000000 
 E8   /kcal   :  -0.000000000 
 % E8         :          -nan 

-------------------------   ----------------
Dispersion correction            0.000000000
-------------------------   ----------------


-------------------------   --------------------
FINAL SINGLE POINT ENERGY       -37.732928633014
-------------------------   --------------------



           ************************************************************
           *        Program running with 4 parallel MPI-processes     *
           *              working on a common directory               *
           ************************************************************
------------------------------------------------------------------------------
                         ORCA SCF GRADIENT CALCULATION
------------------------------------------------------------------------------

 ... reading COSX grid (gridx3)
Gradient of the Kohn-Sham DFT energy:
Kohn-Sham wavefunction type      ... RKS
Hartree-Fock exchange scaling    ...    0.250
Number of operators              ...    1
Number of atoms                  ...    1
Basis set dimensions             ...   31
Integral neglect threshold       ... 2.5e-11
Integral primitive cutoff        ... 2.5e-12
SHARK Integral package           ... ON

Nuc. rep. gradient       (SHARK) ... done (  0.0 sec)
HCore & Overlap gradient (SHARK) ... done (  0.0 sec)
RI-J gradient            (SHARK) ... done (  0.2 sec)
COSX-gradient                    ... done (  0.2 sec)
Exchange-correlation gradient    ... done
Dispersion correction            ... done

------------------
CARTESIAN GRADIENT
------------------

   1   C   :   -0.000000013    0.000000001    0.000000001

Difference to translation invariance:
           :   -0.0000000130    0.0000000005    0.0000000007

Difference to rotation invariance:
           :    0.0000000000    0.0000000000    0.0000000000

Norm of the cartesian gradient     ...    0.0000000131
RMS gradient                       ...    0.0000000075
MAX gradient                       ...    0.0000000130

-------
TIMINGS
-------

Total SCF gradient time            ...        0.636 sec

One electron gradient       ....       0.005 sec  (  0.8%)
RI-J Coulomb gradient       ....       0.203 sec  ( 32.0%)
COSX gradient               ....       0.161 sec  ( 25.4%)
XC gradient                 ....       0.007 sec  (  1.1%)

Maximum memory used throughout the entire SCFGRAD-calculation: 32.5 MB

                            ***************************************
                            *     ORCA property calculations      *
                            ***************************************

                                    ---------------------
                                    Active property flags
                                    ---------------------
   (+) Dipole Moment


------------------------------------------------------------------------------
                       ORCA ELECTRIC PROPERTIES CALCULATION
------------------------------------------------------------------------------

Dipole Moment Calculation                       ... on
Quadrupole Moment Calculation                   ... off
Polarizability Calculation                      ... off
GBWName                                         ... ox_C.gbw
Electron density                                ... ox_C.scfp
The origin for moment calculation is the CENTER OF MASS  = ( 0.000000,  0.000000  0.000000)

-------------
DIPOLE MOMENT
-------------
                                X             Y             Z
Electronic contribution:      0.00000      -0.00000      -0.00000
Nuclear contribution   :      0.00000       0.00000       0.00000
                        -----------------------------------------
Total Dipole Moment    :      0.00000      -0.00000      -0.00000
                        -----------------------------------------
Magnitude (a.u.)       :      0.00000
Magnitude (Debye)      :      0.00000



--------------------
Rotational spectrum 
--------------------
 
Rotational constants in cm-1:     0.000000     0.000000     0.000000 
Rotational constants in MHz :     0.000000     0.000000     0.000000 

 Dipole components along the rotational axes: 
x,y,z [a.u.] :     0.000000    -0.000000    -0.000000 
x,y,z [Debye]:     0.000000    -0.000000    -0.000000 

 

Timings for individual modules:

Sum of individual times         ...        2.999 sec (=   0.050 min)
GTO integral calculation        ...        0.886 sec (=   0.015 min)  29.5 %
SCF iterations                  ...        1.199 sec (=   0.020 min)  40.0 %
SCF Gradient evaluation         ...        0.914 sec (=   0.015 min)  30.5 %
                             ****ORCA TERMINATED NORMALLY****
TOTAL RUN TIME: 0 days 0 hours 0 minutes 4 seconds 186 msec

                                 *****************
                                 * O   R   C   A *
                                 *****************

                                            #,                                       
                                            ###                                      
                                            ####                                     
                                            #####                                    
                                            ######                                   
                                           ########,                                 
                                     ,,################,,,,,                         
                               ,,#################################,,                 
                          ,,##########################################,,             
                       ,#########################################, ''#####,          
                    ,#############################################,,   '####,        
                  ,##################################################,,,,####,       
                ,###########''''           ''''###############################       
              ,#####''   ,,,,##########,,,,          '''####'''          '####       
            ,##' ,,,,###########################,,,                        '##       
           ' ,,###''''                  '''############,,,                           
         ,,##''                                '''############,,,,        ,,,,,,###''
      ,#''                                            '''#######################'''  
     '                                                          ''''####''''         
             ,#######,   #######,   ,#######,      ##                                
            ,#'     '#,  ##    ##  ,#'     '#,    #''#        ######   ,####,        
            ##       ##  ##   ,#'  ##            #'  '#       #        #'  '#        
            ##       ##  #######   ##           ,######,      #####,   #    #        
            '#,     ,#'  ##    ##  '#,     ,#' ,#      #,         ##   #,  ,#        
             '#######'   ##     ##  '#######'  #'      '#     #####' # '####'        



                  #######################################################
                  #                        -***-                        #
                  #          Department of theory and spectroscopy      #
                  #    Directorship and core code : Frank Neese         #
                  #        Max Planck Institute fuer Kohlenforschung    #
                  #                Kaiser Wilhelm Platz 1               #
                  #                 D-45470 Muelheim/Ruhr               #
                  #                      Germany                        #
                  #                                                     #
                  #                  All rights reserved                #
                  #                        -***-                        #
                  #######################################################


                         Program Version 5.0.2 -  RELEASE  -


 With contributions from (in alphabetic order):
   Daniel Aravena         : Magnetic Suceptibility
   Michael Atanasov       : Ab Initio Ligand Field Theory (pilot matlab implementation)
   Alexander A. Auer      : GIAO ZORA, VPT2 properties, NMR spectrum
   Ute Becker             : Parallelization
   Giovanni Bistoni       : ED, misc. LED, open-shell LED, HFLD
   Martin Brehm           : Molecular dynamics
   Dmytro Bykov           : SCF Hessian
   Vijay G. Chilkuri      : MRCI spin determinant printing, contributions to CSF-ICE
   Dipayan Datta          : RHF DLPNO-CCSD density
   Achintya Kumar Dutta   : EOM-CC, STEOM-CC
   Dmitry Ganyushin       : Spin-Orbit,Spin-Spin,Magnetic field MRCI
   Miquel Garcia          : C-PCM and meta-GGA Hessian, CC/C-PCM, Gaussian charge scheme
   Yang Guo               : DLPNO-NEVPT2, F12-NEVPT2, CIM, IAO-localization
   Andreas Hansen         : Spin unrestricted coupled pair/coupled cluster methods
   Benjamin Helmich-Paris : MC-RPA, TRAH-SCF, COSX integrals
   Lee Huntington         : MR-EOM, pCC
   Robert Izsak           : Overlap fitted RIJCOSX, COSX-SCS-MP3, EOM
   Marcus Kettner         : VPT2
   Christian Kollmar      : KDIIS, OOCD, Brueckner-CCSD(T), CCSD density, CASPT2, CASPT2-K
   Simone Kossmann        : Meta GGA functionals, TD-DFT gradient, OOMP2, MP2 Hessian
   Martin Krupicka        : Initial AUTO-CI
   Lucas Lang             : DCDCAS
   Marvin Lechner         : AUTO-CI (C++ implementation), FIC-MRCC
   Dagmar Lenk            : GEPOL surface, SMD
   Dimitrios Liakos       : Extrapolation schemes; Compound Job, initial MDCI parallelization
   Dimitrios Manganas     : Further ROCIS development; embedding schemes
   Dimitrios Pantazis     : SARC Basis sets
   Anastasios Papadopoulos: AUTO-CI, single reference methods and gradients
   Taras Petrenko         : DFT Hessian,TD-DFT gradient, ASA, ECA, R-Raman, ABS, FL, XAS/XES, NRVS
   Peter Pinski           : DLPNO-MP2, DLPNO-MP2 Gradient
   Christoph Reimann      : Effective Core Potentials
   Marius Retegan         : Local ZFS, SOC
   Christoph Riplinger    : Optimizer, TS searches, QM/MM, DLPNO-CCSD(T), (RO)-DLPNO pert. Triples
   Tobias Risthaus        : Range-separated hybrids, TD-DFT gradient, RPA, STAB
   Michael Roemelt        : Original ROCIS implementation
   Masaaki Saitow         : Open-shell DLPNO-CCSD energy and density
   Barbara Sandhoefer     : DKH picture change effects
   Avijit Sen             : IP-ROCIS
   Kantharuban Sivalingam : CASSCF convergence, NEVPT2, FIC-MRCI
   Bernardo de Souza      : ESD, SOC TD-DFT
   Georgi Stoychev        : AutoAux, RI-MP2 NMR, DLPNO-MP2 response
   Willem Van den Heuvel  : Paramagnetic NMR
   Boris Wezisla          : Elementary symmetry handling
   Frank Wennmohs         : Technical directorship


 We gratefully acknowledge several colleagues who have allowed us to
 interface, adapt or use parts of their codes:
   Stefan Grimme, W. Hujo, H. Kruse, P. Pracht,  : VdW corrections, initial TS optimization,
                  C. Bannwarth, S. Ehlert          DFT functionals, gCP, sTDA/sTD-DF
   Ed Valeev, F. Pavosevic, A. Kumar             : LibInt (2-el integral package), F12 methods
   Garnet Chan, S. Sharma, J. Yang, R. Olivares  : DMRG
   Ulf Ekstrom                                   : XCFun DFT Library
   Mihaly Kallay                                 : mrcc  (arbitrary order and MRCC methods)
   Jiri Pittner, Ondrej Demel                    : Mk-CCSD
   Frank Weinhold                                : gennbo (NPA and NBO analysis)
   Christopher J. Cramer and Donald G. Truhlar   : smd solvation model
   Lars Goerigk                                  : TD-DFT with DH, B97 family of functionals
   V. Asgeirsson, H. Jonsson                     : NEB implementation
   FAccTs GmbH                                   : IRC, NEB, NEB-TS, DLPNO-Multilevel, CI-OPT
                                                   MM, QMMM, 2- and 3-layer-ONIOM, Crystal-QMMM,
                                                   LR-CPCM, SF, NACMEs, symmetry and pop. for TD-DFT,
                                                   nearIR, NL-DFT gradient (VV10), updates on ESD,
                                                   ML-optimized integration grids
   S Lehtola, MJT Oliveira, MAL Marques          : LibXC Library
   Liviu Ungur et al                             : ANISO software


 Your calculation uses the libint2 library for the computation of 2-el integrals
 For citations please refer to: http://libint.valeyev.net

 Your ORCA version has been built with support for libXC version: 5.1.0
 For citations please refer to: https://tddft.org/programs/libxc/

 This ORCA versions uses:
   CBLAS   interface :  Fast vector & matrix operations
   LAPACKE interface :  Fast linear algebra routines
   SCALAPACK package :  Parallel linear algebra routines
   Shared memory     :  Shared parallel matrices
   BLAS/LAPACK       :  OpenBLAS 0.3.15  USE64BITINT DYNAMIC_ARCH NO_AFFINITY SkylakeX SINGLE_THREADED
        Core in use  :  SkylakeX
   Copyright (c) 2011-2014, The OpenBLAS Project


Your calculation utilizes the atom-pairwise dispersion correction
with the Becke-Johnson damping scheme (D3BJ)
Cite in your paper:
S.Grimme, S.Ehrlich, L.Goerigk, J Comput Chem, (2011), 32, 1456–1465 
S.Grimme, J.Antony, S.Ehrlich and H.Krieg, J.Chem.Phys., 132, (2010), 154104 
   

================================================================================

----- Orbital basis set information -----
Your calculation utilizes the basis: def2-TZVP
   F. Weigend and R. Ahlrichs, Phys. Chem. Chem. Phys. 7, 3297 (2005).

----- AuxJ basis set information -----
Your calculation utilizes the auxiliary basis: def2/J
   F. Weigend, Phys. Chem. Chem. Phys. 8, 1057 (2006).

================================================================================
                                        WARNINGS
                       Please study these warnings very carefully!
================================================================================


INFO   : the flag for use of the SHARK integral package has been found!

================================================================================
                                       INPUT FILE
================================================================================
NAME = ox_C.inp
|  1> ! engrad PBE0 D3BJ def2-TZVP  
|  2> %pal nprocs 4 end
|  3> %maxcore 3200
|  4>  
|  5> *xyz 0 1 
|  6> C   0.0 0.0 0.0
|  7> *
|  8> 
|  9>                          ****END OF INPUT****
================================================================================

                     *******************************
                     * Energy+Gradient Calculation *
                     *******************************

---------------------------------
CARTESIAN COORDINATES (ANGSTROEM)
---------------------------------
  C      0.000000    0.000000    0.000000

----------------------------
CARTESIAN COORDINATES (A.U.)
----------------------------
  NO LB      ZA    FRAG     MASS         X           Y           Z
   0 C     6.0000    0    12.011    0.000000    0.000000    0.000000

--------------------------------
INTERNAL COORDINATES (ANGSTROEM)
--------------------------------
 C      0   0   0     0.000000000000     0.00000000     0.00000000

---------------------------
INTERNAL COORDINATES (A.U.)
---------------------------
 C      0   0   0     0.000000000000     0.00000000     0.00000000

---------------------
BASIS SET INFORMATION
---------------------
There are 1 groups of distinct atoms

 Group   1 Type C   : 11s6p2d1f contracted to 5s3p2d1f pattern {62111/411/11/1}

Atom   0C    basis set group =>   1
---------------------------------
AUXILIARY/J BASIS SET INFORMATION
---------------------------------
There are 1 groups of distinct atoms

 Group   1 Type C   : 12s5p4d2f1g contracted to 6s4p3d1f1g pattern {711111/2111/211/2/1}

Atom   0C    basis set group =>   1

Checking for AutoStart:
The File: ox_C.gbw exists
Trying to determine its content:
     ... Fine, the file contains calculation information
     ... Fine, the calculation information was read
     ... Fine, the file contains a basis set
     ... Fine, the basis set was read
     ... Fine, the file contains a geometry
     ... Fine, the geometry was read
     ... Fine, the file contains a set of orbitals
     ... Fine, the orbitals can be read
     => possible old guess file was deleted
     => GBW file was renamed to GES file
     => GES file is set as startup file
     => Guess is set to MORead
     ... now leaving AutoStart



           ************************************************************
           *        Program running with 4 parallel MPI-processes     *
           *              working on a common directory               *
           ************************************************************
------------------------------------------------------------------------------
                           ORCA GTO INTEGRAL CALCULATION
                           -- RI-GTO INTEGRALS CHOSEN --
------------------------------------------------------------------------------
------------------------------------------------------------------------------
                   ___                                                        
                  /   \      - P O W E R E D   B Y -                         
                 /     \                                                     
                 |  |  |   _    _      __       _____    __    __             
                 |  |  |  | |  | |    /  \     |  _  \  |  |  /  |          
                  \  \/   | |  | |   /    \    | | | |  |  | /  /          
                 / \  \   | |__| |  /  /\  \   | |_| |  |  |/  /          
                |  |  |   |  __  | /  /__\  \  |    /   |      \           
                |  |  |   | |  | | |   __   |  |    \   |  |\   \          
                \     /   | |  | | |  |  |  |  | |\  \  |  | \   \       
                 \___/    |_|  |_| |__|  |__|  |_| \__\ |__|  \__/        
                                                                              
                      - O R C A' S   B I G   F R I E N D -                    
                                      &                                       
                       - I N T E G R A L  F E E D E R -                       
                                                                              
 v1 FN, 2020, v2 2021                                                         
------------------------------------------------------------------------------


Reading SHARK input file ox_C.SHARKINP.tmp ... ok
----------------------
SHARK INTEGRAL PACKAGE
----------------------

Number of atoms                             ...      1
Number of basis functions                   ...     31
Number of shells                            ...     11
Maximum angular momentum                    ...      3
Integral batch strategy                     ... SHARK/LIBINT Hybrid
RI-J (if used) integral strategy            ... SPLIT-RIJ (Revised 2003 algorithm where possible)
Printlevel                                  ...      1
Contraction scheme used                     ... SEGMENTED contraction
Coulomb Range Separation                    ... NOT USED
Exchange Range Separation                   ... NOT USED
Finite Nucleus Model                        ... NOT USED
Auxiliary Coulomb fitting basis             ... AVAILABLE
   # of basis functions in Aux-J            ...     49
   # of shells in Aux-J                     ...     15
   Maximum angular momentum in Aux-J        ...      4
Auxiliary J/K fitting basis                 ... NOT available
Auxiliary Correlation fitting basis         ... NOT available
Auxiliary 'external' fitting basis          ... NOT available
Integral threshold                          ...     2.500000e-11
Primitive cut-off                           ...     2.500000e-12
Primitive pair pre-selection threshold      ...     2.500000e-12

Calculating pre-screening integrals         ... done (  0.0 sec) Dimension = 11
Organizing shell pair data                  ... done (  0.0 sec)
Shell pair information
Total number of shell pairs                 ...        66
Shell pairs after pre-screening             ...        66
Total number of primitive shell pairs       ...       232
Primitive shell pairs kept                  ...       232
          la=0 lb=0:     15 shell pairs
          la=1 lb=0:     15 shell pairs
          la=1 lb=1:      6 shell pairs
          la=2 lb=0:     10 shell pairs
          la=2 lb=1:      6 shell pairs
          la=2 lb=2:      3 shell pairs
          la=3 lb=0:      5 shell pairs
          la=3 lb=1:      3 shell pairs
          la=3 lb=2:      2 shell pairs
          la=3 lb=3:      1 shell pairs

Calculating one electron integrals          ... done (  0.0 sec)
Calculating RI/J V-Matrix + Cholesky decomp.... done (  0.0 sec)
Calculating Nuclear repulsion               ... done (  0.0 sec) ENN=      0.000000000000 Eh

SHARK setup successfully completed in   0.1 seconds

Maximum memory used throughout the entire GTOINT-calculation: 13.7 MB


           ************************************************************
           *        Program running with 4 parallel MPI-processes     *
           *              working on a common directory               *
           ************************************************************
-------------------------------------------------------------------------------
                                 ORCA SCF
-------------------------------------------------------------------------------

------------
SCF SETTINGS
------------
Hamiltonian:
 Density Functional     Method          .... DFT(GTOs)
 Exchange Functional    Exchange        .... PBE
   PBE kappa parameter   XKappa         ....  0.804000
   PBE mue parameter    XMuePBE         ....  0.219520
 Correlation Functional Correlation     .... PBE
   PBE beta parameter  CBetaPBE         ....  0.066725
 LDA part of GGA corr.  LDAOpt          .... PW91-LDA
 Gradients option       PostSCFGGA      .... off
 Hybrid DFT is turned on
   Fraction HF Exchange ScalHFX         ....  0.250000
   Scaling of DF-GGA-X  ScalDFX         ....  0.750000
   Scaling of DF-GGA-C  ScalDFC         ....  1.000000
   Scaling of DF-LDA-C  ScalLDAC        ....  1.000000
   Perturbative correction              ....  0.000000
   Density functional embedding theory  .... OFF
   NL short-range parameter             ....  6.900000
 RI-approximation to the Coulomb term is turned on
   Number of AuxJ basis functions       .... 49
   RIJ-COSX (HFX calculated with COS-X)).... on


General Settings:
 Integral files         IntName         .... ox_C
 Hartree-Fock type      HFTyp           .... RHF
 Total Charge           Charge          ....    0
 Multiplicity           Mult            ....    1
 Number of Electrons    NEL             ....    6
 Basis Dimension        Dim             ....   31
 Nuclear Repulsion      ENuc            ....      0.0000000000 Eh

Convergence Acceleration:
 DIIS                   CNVDIIS         .... on
   Start iteration      DIISMaxIt       ....    12
   Startup error        DIISStart       ....  0.200000
   # of expansion vecs  DIISMaxEq       ....     5
   Bias factor          DIISBfac        ....   1.050
   Max. coefficient     DIISMaxC        ....  10.000
 Trust-Rad. Augm. Hess. CNVTRAH         .... auto
   Auto Start mean grad. ratio tolernc. ....  1.125000
   Auto Start start iteration           ....     1
   Auto Start num. interpolation iter.  ....    10
   Max. Number of Micro iterations      ....    16
   Max. Number of Macro iterations      .... Maxiter - #DIIS iter
   Number of Davidson start vectors     ....     2
   Converg. threshold I  (grad. norm)   ....   1.000e-05
   Converg. threshold II (energy diff.) ....   1.000e-08
   Grad. Scal. Fac. for Micro threshold ....   0.100
   Minimum threshold for Micro iter.    ....   0.010
   NR start threshold (gradient norm)   ....   0.001
   Initial trust radius                 ....   0.400
   Minimum AH scaling param. (alpha)    ....   1.000
   Maximum AH scaling param. (alpha)    .... 1000.000
   Orbital update algorithm             .... Taylor
   White noise on init. David. guess    .... on
   Maximum white noise                  ....   0.010
   Quad. conv. algorithm                .... NR
 SOSCF                  CNVSOSCF        .... on
   Start iteration      SOSCFMaxIt      ....   150
   Startup grad/error   SOSCFStart      ....  0.003300
 Level Shifting         CNVShift        .... on
   Level shift para.    LevelShift      ....    0.2500
   Turn off err/grad.   ShiftErr        ....    0.0010
 Zerner damping         CNVZerner       .... off
 Static damping         CNVDamp         .... on
   Fraction old density DampFac         ....    0.7000
   Max. Damping (<1)    DampMax         ....    0.9800
   Min. Damping (>=0)   DampMin         ....    0.0000
   Turn off err/grad.   DampErr         ....    0.1000
 Fernandez-Rico         CNVRico         .... off

SCF Procedure:
 Maximum # iterations   MaxIter         ....   125
 SCF integral mode      SCFMode         .... Direct
   Integral package                     .... SHARK and LIBINT hybrid scheme
 Reset frequency        DirectResetFreq ....    20
 Integral Threshold     Thresh          ....  2.500e-11 Eh
 Primitive CutOff       TCut            ....  2.500e-12 Eh

Convergence Tolerance:
 Convergence Check Mode ConvCheckMode   .... Total+1el-Energy
 Convergence forced     ConvForced      .... 0
 Energy Change          TolE            ....  1.000e-08 Eh
 1-El. energy change                    ....  1.000e-05 Eh
 Orbital Gradient       TolG            ....  1.000e-05
 Orbital Rotation angle TolX            ....  1.000e-05
 DIIS Error             TolErr          ....  5.000e-07


Diagonalization of the overlap matrix:
Smallest eigenvalue                        ... 2.860e-02
Time for diagonalization                   ...    0.000 sec
Threshold for overlap eigenvalues          ... 1.000e-08
Number of eigenvalues below threshold      ... 0
Time for construction of square roots      ...    0.000 sec
Total time needed                          ...    0.001 sec

---------------------
INITIAL GUESS: MOREAD
---------------------
Guess MOs are being read from file: ox_C.ges
Input Geometry matches current geometry (good)
Input basis set matches current basis set (good)
MOs were renormalized
MOs were reorthogonalized (Cholesky)
                      ------------------
                      INITIAL GUESS DONE (   0.0 sec)
                      ------------------
-------------------
DFT GRID GENERATION
-------------------

General Integration Accuracy     IntAcc      ... 4.388
Radial Grid Type                 RadialGrid  ... OptM3 with GC (2021)
Angular Grid (max. ang.)         AngularGrid ... 4 (Lebedev-302)
Angular grid pruning method      GridPruning ... 4 (adaptive)
Weight generation scheme         WeightScheme... Becke
Basis function cutoff            BFCut       ... 1.0000e-11
Integration weight cutoff        WCut        ... 1.0000e-14
Angular grids for H and He will be reduced by one unit
Partially contracted basis set               ... off
Rotationally invariant grid construction     ... off

Total number of grid points                  ...     6136
Total number of batches                      ...       96
Average number of points per batch           ...       63
Average number of grid points per atom       ...     6136
Time for grid setup =    0.018 sec

--------------------
COSX GRID GENERATION
--------------------

GRIDX 1
-------
General Integration Accuracy     IntAcc      ... 3.816
Radial Grid Type                 RadialGrid  ... OptM3 with GC (2021)
Angular Grid (max. ang.)         AngularGrid ... 1 (Lebedev-50)
Angular grid pruning method      GridPruning ... 4 (adaptive)
Weight generation scheme         WeightScheme... Becke
Basis function cutoff            BFCut       ... 1.0000e-11
Integration weight cutoff        WCut        ... 1.0000e-14
Angular grids for H and He will be reduced by one unit
Partially contracted basis set               ... on
Rotationally invariant grid construction     ... off

Total number of grid points                  ...      772
Total number of batches                      ...       13
Average number of points per batch           ...       59
Average number of grid points per atom       ...      772
UseSFitting                                  ... on

GRIDX 2
-------
General Integration Accuracy     IntAcc      ... 4.020
Radial Grid Type                 RadialGrid  ... OptM3 with GC (2021)
Angular Grid (max. ang.)         AngularGrid ... 2 (Lebedev-110)
Angular grid pruning method      GridPruning ... 4 (adaptive)
Weight generation scheme         WeightScheme... Becke
Basis function cutoff            BFCut       ... 1.0000e-11
Integration weight cutoff        WCut        ... 1.0000e-14
Angular grids for H and He will be reduced by one unit
Partially contracted basis set               ... on
Rotationally invariant grid construction     ... off

Total number of grid points                  ...     1892
Total number of batches                      ...       30
Average number of points per batch           ...       63
Average number of grid points per atom       ...     1892
UseSFitting                                  ... on

GRIDX 3
-------
General Integration Accuracy     IntAcc      ... 4.338
Radial Grid Type                 RadialGrid  ... OptM3 with GC (2021)
Angular Grid (max. ang.)         AngularGrid ... 3 (Lebedev-194)
Angular grid pruning method      GridPruning ... 4 (adaptive)
Weight generation scheme         WeightScheme... Becke
Basis function cutoff            BFCut       ... 1.0000e-11
Integration weight cutoff        WCut        ... 1.0000e-14
Angular grids for H and He will be reduced by one unit
Partially contracted basis set               ... on
Rotationally invariant grid construction     ... off

Total number of grid points                  ...     4224
Total number of batches                      ...       67
Average number of points per batch           ...       63
Average number of grid points per atom       ...     4224
UseSFitting                                  ... on

Time for X-Grid setup             =    0.011 sec

--------------
SCF ITERATIONS
--------------
ITER       Energy         Delta-E        Max-DP      RMS-DP      [F,P]     Damp
               ***  Starting incremental Fock matrix formation  ***
                      *** Initiating the SOSCF procedure ***
                      *** Re-Reading the Fockian *** 
                      *** Removing any level shift *** 
ITER      Energy       Delta-E        Grad      Rot      Max-DP    RMS-DP
  0    -37.73292856 -37.7329285615  0.000000  0.000000  0.000001  0.000000
               *** Restarting incremental Fock matrix formation ***
                 **** Energy Check signals convergence ****
              ***Rediagonalizing the Fockian in SOSCF/NRSCF***

               *****************************************************
               *                     SUCCESS                       *
               *           SCF CONVERGED AFTER   1 CYCLES          *
               *****************************************************

Old exchange energy                            =     -1.249691085 Eh
New exchange energy                            =     -1.249691157 Eh
Exchange energy change after final integration =     -0.000000072 Eh
Total energy after final integration           =    -37.732928633 Eh
Final COS-X integration done in                =     0.021 sec

----------------
TOTAL SCF ENERGY
----------------

Total Energy       :          -37.73292863 Eh           -1026.76519 eV

Components:
Nuclear Repulsion  :            0.00000000 Eh               0.00000 eV
Electronic Energy  :          -37.73292863 Eh           -1026.76519 eV
One Electron Energy:          -50.34104461 Eh           -1369.84947 eV
Two Electron Energy:           12.60811598 Eh             343.08428 eV
Max COSX asymmetry :            0.00000006 Eh               0.00000 eV

Virial components:
Potential Energy   :          -75.34563539 Eh           -2050.25897 eV
Kinetic Energy     :           37.61270675 Eh            1023.49378 eV
Virial Ratio       :            2.00319631


DFT components:
N(Alpha)           :        3.000001372988 electrons
N(Beta)            :        3.000001372988 electrons
N(Total)           :        6.000002745976 electrons
E(X)               :       -3.728127687746 Eh       
E(C)               :       -0.152845127305 Eh       
E(XC)              :       -3.880972815051 Eh       
DFET-embed. en.    :        0.000000000000 Eh       

---------------
SCF CONVERGENCE
---------------

  Last Energy change         ...   -3.6380e-12  Tolerance :   1.0000e-08
  Last MAX-Density change    ...    2.2204e-16  Tolerance :   1.0000e-07
  Last RMS-Density change    ...    8.3921e-18  Tolerance :   5.0000e-09
[...]
      px      :     0.082412
      py      :     1.696060
      dz2     :     0.000027  d :     0.000239
      dxz     :     0.000003
      dyz     :     0.000067
      dx2y2   :     0.000117
      dxy     :     0.000025
      f0      :     0.000038  f :     0.000227
      f+1     :     0.000001
      f-1     :     0.000014
      f+2     :     0.000061
      f-2     :     0.000013
      f+3     :     0.000037
      f-3     :     0.000063


                     *******************************
                     * LOEWDIN POPULATION ANALYSIS *
                     *******************************

----------------------
LOEWDIN ATOMIC CHARGES
----------------------
   0 C :   -0.000000

-------------------------------
LOEWDIN REDUCED ORBITAL CHARGES
-------------------------------
  0 C s       :     3.999761  s :     3.999761
      pz      :     0.221302  p :     1.999773
      px      :     0.082412
      py      :     1.696060
      dz2     :     0.000027  d :     0.000239
      dxz     :     0.000003
      dyz     :     0.000067
      dx2y2   :     0.000117
      dxy     :     0.000025
      f0      :     0.000038  f :     0.000227
      f+1     :     0.000001
      f-1     :     0.000014
      f+2     :     0.000061
      f-2     :     0.000013
      f+3     :     0.000037
      f-3     :     0.000063


                      *****************************
                      * MAYER POPULATION ANALYSIS *
                      *****************************

  NA   - Mulliken gross atomic population
  ZA   - Total nuclear charge
  QA   - Mulliken gross atomic charge
  VA   - Mayer's total valence
  BVA  - Mayer's bonded valence
  FA   - Mayer's free valence

  ATOM       NA         ZA         QA         VA         BVA        FA
  0 C      6.0000     6.0000    -0.0000    -0.0000     0.0000    -0.0000

  Mayer bond orders larger than 0.100000



Warning: MO coefficients are modified such that the real solid harmonic m components
have the correct order within each shell (0, +1, -1, +2, -2, ...) and all s orbitals
come before all p orbitals etc. (with increasing orbital energy within each block of given angular momentum).

CleanUpVectors: The p-vectors have cracked symmetry
CleanUpVectors: The p-vectors have cracked symmetry
CleanUpVectors: The p-vectors have cracked symmetry
CleanUpVectors: The p-vectors have cracked symmetry
CleanUpVectors: The p-vectors have cracked symmetry
CleanUpVectors: The p-vectors have cracked symmetry
CleanUpVectors: The d-vectors have cracked symmetry at i=9
CleanUpVectors: The d-vectors have cracked symmetry at i=10
CleanUpVectors: The d-vectors have cracked symmetry at i=11
CleanUpVectors: The d-vectors have cracked symmetry at i=12
CleanUpVectors: The d-vectors have cracked symmetry at i=13
CleanUpVectors: The p-vectors have cracked symmetry
CleanUpVectors: The p-vectors have cracked symmetry
CleanUpVectors: The p-vectors have cracked symmetry
CleanUpVectors: The f-vectors have cracked symmetry
CleanUpVectors: The f-vectors have cracked symmetry
CleanUpVectors: The f-vectors have cracked symmetry
CleanUpVectors: The f-vectors have cracked symmetry
CleanUpVectors: The f-vectors have cracked symmetry
CleanUpVectors: The f-vectors have cracked symmetry
CleanUpVectors: The f-vectors have cracked symmetry
CleanUpVectors: The d-vectors have cracked symmetry at i=25
CleanUpVectors: The d-vectors have cracked symmetry at i=26
--------------------------
ATOM BASIS FOR ELEMENT C 
--------------------------
 NewGTO C 
 S 11
    1      13575.349682000000         0.000283259340
    2       2035.233368000000         0.002194271188
    3        463.225623590000         0.011365068266
    4        131.200195980000         0.045492995360
    5         42.853015891000         0.141035731136
    6         15.584185766000         0.309359985037
    7          6.206713850800         0.400390553365
    8          2.576489652700         0.229420866324
    9          0.576963394200         0.029281341252
   10          0.229728313600        -0.016270196951
   11          0.095164440000         0.005515359711
 S 11
    1      13575.349682000000         0.000069001482
    2       2035.233368000000         0.000534520644
    3        463.225623590000         0.002768510856
    4        131.200195980000         0.011082014519
    5         42.853015891000         0.034356058726
    6         15.584185766000         0.075359554121
    7          6.206713850800         0.161500521337
    8          2.576489652700         0.092538620618
    9          0.576963394200        -0.424028042146
   10          0.229728313600        -0.526242467214
   11          0.095164440000        -0.178459504912
 P 20
    1         34.697232244000         0.001761548707
    2          7.958262282600         0.011845498202
    3          2.378082688300         0.046953376564
    4          0.814332081800         0.113191383495
    5         34.697232244000         0.001074975521
    6          7.958262282600         0.007228650873
    7          2.378082688300         0.028653042761
    8          0.814332081800         0.069074426351
    9         34.697232244000         0.004876685370
   10          7.958262282600         0.032793170901
   11          2.378082688300         0.129986099006
   12          0.814332081800         0.313359921229
   13          0.288875472500         0.135813788520
   14          0.288875472500         0.082879155721
   15          0.288875472500         0.375985960746
   16          0.100568236700         0.108532193859
   17          0.100568236700         0.066230522955
   18          0.100568236700         0.300458488419
   19          0.761000000000         0.013199133382
   20          0.761000000000         0.001801743644
 S 11
    1      13575.349682000000        -0.000034500038
    2       2035.233368000000        -0.000267254871
    3        463.225623590000        -0.001384227194
    4        131.200195980000        -0.005540894241
    5         42.853015891000        -0.017177678987
    6         15.584185766000        -0.037679008515
    7          6.206713850800        -0.071975012353
    8          2.576489652700        -0.041241157038
    9          0.576963394200        -0.048656724342
   10          0.229728313600         1.850281896331
   11          0.095164440000        -2.073700093941
 S 11
    1      13575.349682000000        -0.000080755043
    2       2035.233368000000        -0.000625569715
    3        463.225623590000        -0.003240092906
    4        131.200195980000        -0.012969700499
    5         42.853015891000        -0.040208194208
    6         15.584185766000        -0.088196134826
    7          6.206713850800        -0.267654067041
    8          2.576489652700        -0.153363827942
    9          0.576963394200         2.868775006335
   10          0.229728313600        -3.913846582119
   11          0.095164440000         1.672519173934
 P 20
    1         34.697232244000        -0.000638050296
    2          7.958262282600        -0.004290556146
    3          2.378082688300        -0.017006975557
    4          0.814332081800        -0.040999034217
    5         34.697232244000         0.003408676659
    6          7.958262282600         0.022921576385
    7          2.378082688300         0.090856913666
    8          0.814332081800         0.219030461927
    9         34.697232244000        -0.000520842811
   10          7.958262282600        -0.003502396819
   11          2.378082688300        -0.013882856922
   12          0.814332081800        -0.033467662964
   13          0.288875472500        -0.141291586403
   14          0.288875472500         0.754826883479
   15          0.288875472500        -0.115337095211
   16          0.100568236700         0.231496758813
   17          0.100568236700        -1.236734496322
   18          0.100568236700         0.188971284472
   19          0.761000000000        -0.000524950040
   20          0.761000000000         0.001471136677
 D 13
    1          6.206713850800         0.000000001602
    2          0.576963394200        -0.000000254480
    3          0.229728313600         0.000001106992
    4          1.097000000000        -0.003529421570
    5          1.097000000000        -0.008751156441
    6          1.097000000000         0.003401291147
    7          1.097000000000         0.003684928011
    8          1.097000000000         0.001899656080
    9          0.318000000000         0.327056254428
   10          0.318000000000         0.810928300010
   11          0.318000000000        -0.315164787423
   12          0.318000000000        -0.341470983650
   13          0.318000000000        -0.176026498074
 P 20
    1         34.697232244000        -0.002933515189
    2          7.958262282600        -0.019726362810
    3          2.378082688300        -0.078191674631
    4          0.814332081800        -0.188498133189
    5         34.697232244000         0.013834462883
    6          7.958262282600         0.093029562341
    7          2.378082688300         0.368752077597
    8          0.814332081800         0.888957533706
    9         34.697232244000        -0.001989723377
   10          7.958262282600        -0.013379854099
   11          2.378082688300        -0.053035281180
   12          0.814332081800        -0.127853144759
   13          0.288875472500         0.346480089434
   14          0.288875472500        -1.634001431915
   15          0.288875472500         0.235007708997
   16          0.100568236700        -0.159243664235
   17          0.100568236700         0.750993677706
   18          0.100568236700        -0.108010496265
   19          0.761000000000         0.000767882334
   20          0.761000000000        -0.001945458984
 F 20
    1         34.697232244000         0.000000000053
    2          7.958262282600         0.000000001545
    3          2.378082688300         0.000000020492
    4          0.814332081800         0.000000144263
    5         34.697232244000        -0.000000000081
    6          7.958262282600        -0.000000002379
    7          2.378082688300        -0.000000031552
    8          0.814332081800        -0.000000222126
    9         34.697232244000        -0.000000000017
   10          7.958262282600        -0.000000000508
   11          2.378082688300        -0.000000006739
   12          0.814332081800        -0.000000047442
   13          0.288875472500        -0.000000495771
   14          0.288875472500         0.000000730603
   15          0.761000000000         0.619754433955
   16          0.761000000000         0.241232205690
   17          0.761000000000        -0.327338344677
   18          0.761000000000        -0.601385885211
   19          0.761000000000         0.128140075254
   20          0.761000000000        -0.052353907215
 D 20
    1      13575.349682000000        -0.000000000000
    2       2035.233368000000        -0.000000000000
    3        463.225623590000        -0.000000000003
    4        131.200195980000        -0.000000000037
    5         42.853015891000        -0.000000000350
    6         15.584185766000        -0.000000002109
    7          6.206713850800        -0.000000013941
    8          2.576489652700        -0.000000019243
    9          0.576963394200         0.000001353805
   10          0.229728313600        -0.000003445025
   11          0.095164440000         0.000002831437
   12          1.097000000000         0.440910133602
   13          1.097000000000         0.912233856241
   14          1.097000000000        -0.384896132889
   15          1.097000000000        -0.432861839442
   16          1.097000000000        -0.177956306642
   17          0.318000000000        -0.230944581626
   18          0.318000000000        -0.477819507388
   19          0.318000000000         0.201604936364
   20          0.318000000000         0.226728962128
 S 20
    1      13575.349682000000         0.000834577127
    2       2035.233368000000         0.006465059703
    3        463.225623590000         0.033485307226
    4        131.200195980000         0.134037639778
    5         42.853015891000         0.415538620319
    6         15.584185766000         0.911478391528
    7          6.206713850800        -1.090016348832
    8          2.576489652700        -0.624571416471
    9          0.576963394200         1.306696999365
   10          0.229728313600        -1.132293363320
   11          0.095164440000         0.415546989656
   12          1.097000000000        -0.000996235915
   13          1.097000000000         0.000348799170
   14          1.097000000000         0.001582610618
   15          1.097000000000        -0.002084071346
   16          1.097000000000         0.000965743911
   17          0.318000000000         0.000105814828
   18          0.318000000000        -0.000037047443
   19          0.318000000000        -0.000168096014
   20          0.318000000000         0.000221358145
 end
-------
TIMINGS
-------

Total SCF time: 0 days 0 hours 0 min 0 sec 

Total time                  ....       0.248 sec
Sum of individual times     ....       0.189 sec  ( 76.1%)

Fock matrix formation       ....       0.143 sec  ( 57.6%)
  Split-RI-J                ....       0.075 sec  ( 52.7% of F)
  Chain of spheres X        ....       0.063 sec  ( 44.1% of F)
  XC integration            ....       0.004 sec  (  3.0% of F)
    Basis function eval.    ....       0.001 sec  ( 23.3% of XC)
    Density eval.           ....       0.001 sec  ( 14.4% of XC)
    XC-Functional eval.     ....       0.001 sec  ( 20.0% of XC)
    XC-Potential eval.      ....       0.001 sec  ( 15.5% of XC)
Diagonalization             ....       0.000 sec  (  0.2%)
Density matrix formation    ....       0.000 sec  (  0.0%)
Population analysis         ....       0.001 sec  (  0.4%)
Initial guess               ....       0.004 sec  (  1.8%)
Orbital Transformation      ....       0.000 sec  (  0.0%)
Orbital Orthonormalization  ....       0.000 sec  (  0.1%)
DIIS solution               ....       0.000 sec  (  0.2%)
SOSCF solution              ....       0.000 sec  (  0.2%)
Grid generation             ....       0.039 sec  ( 15.8%)

Maximum memory used throughout the entire SCF-calculation: 57.2 MB


-------------------------------------------------------------------------------
                          DFT DISPERSION CORRECTION                            
                                                                               
                              DFTD3 V3.1  Rev 1                                
                          USING Becke-Johnson damping                          
-------------------------------------------------------------------------------
The PBE0 functional is recognized
Active option DFTDOPT                   ...         4   

molecular C6(AA) [au] = 48.991680 


            DFT-D V3
 parameters
 s6 scaling factor         :     1.0000 
 a1 scaling factor         :     0.4145 
 s8 scaling factor         :     1.2177 
 a2 scaling factor         :     4.8593 
 ad hoc parameters k1-k3   :    16.0000     1.3333    -4.0000 

 Edisp/kcal,au: -0.000000000000  -0.000000000000 
 E6   /kcal   :  -0.000000000 
 E8   /kcal   :  -0.000000000 
 % E8         :          -nan 

-------------------------   ----------------
Dispersion correction            0.000000000
-------------------------   ----------------


-------------------------   --------------------
FINAL SINGLE POINT ENERGY       -37.732928633017
-------------------------   --------------------



           ************************************************************
           *        Program running with 4 parallel MPI-processes     *
           *              working on a common directory               *
           ************************************************************
------------------------------------------------------------------------------
                         ORCA SCF GRADIENT CALCULATION
------------------------------------------------------------------------------

 ... reading COSX grid (gridx3)
Gradient of the Kohn-Sham DFT energy:
Kohn-Sham wavefunction type      ... RKS
Hartree-Fock exchange scaling    ...    0.250
Number of operators              ...    1
Number of atoms                  ...    1
Basis set dimensions             ...   31
Integral neglect threshold       ... 2.5e-11
Integral primitive cutoff        ... 2.5e-12
SHARK Integral package           ... ON

Nuc. rep. gradient       (SHARK) ... done (  0.0 sec)
HCore & Overlap gradient (SHARK) ... done (  0.0 sec)
RI-J gradient            (SHARK) ... done (  0.0 sec)
COSX-gradient                    ... done (  0.0 sec)
Exchange-correlation gradient    ... done
Dispersion correction            ... done

------------------
CARTESIAN GRADIENT
------------------

   1   C   :   -0.000000013    0.000000001    0.000000001

Difference to translation invariance:
           :   -0.0000000130    0.0000000005    0.0000000007

Difference to rotation invariance:
           :    0.0000000000    0.0000000000    0.0000000000

Norm of the cartesian gradient     ...    0.0000000131
RMS gradient                       ...    0.0000000075
MAX gradient                       ...    0.0000000130

-------
TIMINGS
-------

Total SCF gradient time            ...        0.197 sec

One electron gradient       ....       0.001 sec  (  0.4%)
RI-J Coulomb gradient       ....       0.038 sec  ( 19.5%)
COSX gradient               ....       0.043 sec  ( 21.8%)
XC gradient                 ....       0.011 sec  (  5.7%)

Maximum memory used throughout the entire SCFGRAD-calculation: 32.5 MB

                            ***************************************
                            *     ORCA property calculations      *
                            ***************************************

                                    ---------------------
                                    Active property flags
                                    ---------------------
   (+) Dipole Moment


------------------------------------------------------------------------------
                       ORCA ELECTRIC PROPERTIES CALCULATION
------------------------------------------------------------------------------

Dipole Moment Calculation                       ... on
Quadrupole Moment Calculation                   ... off
Polarizability Calculation                      ... off
GBWName                                         ... ox_C.gbw
Electron density                                ... ox_C.scfp
The origin for moment calculation is the CENTER OF MASS  = ( 0.000000,  0.000000  0.000000)

-------------
DIPOLE MOMENT
-------------
                                X             Y             Z
Electronic contribution:      0.00000      -0.00000       0.00000
Nuclear contribution   :      0.00000       0.00000       0.00000
                        -----------------------------------------
Total Dipole Moment    :      0.00000      -0.00000       0.00000
                        -----------------------------------------
Magnitude (a.u.)       :      0.00000
Magnitude (Debye)      :      0.00000



--------------------
Rotational spectrum 
--------------------
 
Rotational constants in cm-1:     0.000000     0.000000     0.000000 
Rotational constants in MHz :     0.000000     0.000000     0.000000 

 Dipole components along the rotational axes: 
x,y,z [a.u.] :     0.000000    -0.000000     0.000000 
x,y,z [Debye]:     0.000000    -0.000000     0.000000 

 

Timings for individual modules:

Sum of individual times         ...        0.920 sec (=   0.015 min)
GTO integral calculation        ...        0.171 sec (=   0.003 min)  18.5 %
SCF iterations                  ...        0.382 sec (=   0.006 min)  41.5 %
SCF Gradient evaluation         ...        0.367 sec (=   0.006 min)  39.9 %
                             ****ORCA TERMINATED NORMALLY****
TOTAL RUN TIME: 0 days 0 hours 0 minutes 1 seconds 199 msec
