
                                 *****************
                                 * O   R   C   A *
                                 *****************

                                            #,                                       
                                            ###                                      
                                            ####                                     
                                            #####                                    
                                            ######                                   
                                           ########,                                 
                                     ,,################,,,,,                         
                               ,,#################################,,                 
                          ,,##########################################,,             
                       ,#########################################, ''#####,          
                    ,#############################################,,   '####,        
                  ,##################################################,,,,####,       
                ,###########''''           ''''###############################       
              ,#####''   ,,,,##########,,,,          '''####'''          '####       
            ,##' ,,,,###########################,,,                        '##       
           ' ,,###''''                  '''############,,,                           
         ,,##''                                '''############,,,,        ,,,,,,###''
      ,#''                                            '''#######################'''  
     '                                                          ''''####''''         
             ,#######,   #######,   ,#######,      ##                                
            ,#'     '#,  ##    ##  ,#'     '#,    #''#        ######   ,####,        
            ##       ##  ##   ,#'  ##            #'  '#       #        #'  '#        
            ##       ##  #######   ##           ,######,      #####,   #    #        
            '#,     ,#'  ##    ##  '#,     ,#' ,#      #,         ##   #,  ,#        
             '#######'   ##     ##  '#######'  #'      '#     #####' # '####'        



                  #######################################################
                  #                        -***-                        #
                  #          Department of theory and spectroscopy      #
                  #    Directorship and core code : Frank Neese         #
                  #        Max Planck Institute fuer Kohlenforschung    #
                  #                Kaiser Wilhelm Platz 1               #
                  #                 D-45470 Muelheim/Ruhr               #
                  #                      Germany                        #
                  #                                                     #
                  #                  All rights reserved                #
                  #                        -***-                        #
                  #######################################################


                         Program Version 5.0.2 -  RELEASE  -


 With contributions from (in alphabetic order):
   Daniel Aravena         : Magnetic Suceptibility
   Michael Atanasov       : Ab Initio Ligand Field Theory (pilot matlab implementation)
   Alexander A. Auer      : GIAO ZORA, VPT2 properties, NMR spectrum
   Ute Becker             : Parallelization
   Giovanni Bistoni       : ED, misc. LED, open-shell LED, HFLD
   Martin Brehm           : Molecular dynamics
   Dmytro Bykov           : SCF Hessian
   Vijay G. Chilkuri      : MRCI spin determinant printing, contributions to CSF-ICE
   Dipayan Datta          : RHF DLPNO-CCSD density
   Achintya Kumar Dutta   : EOM-CC, STEOM-CC
   Dmitry Ganyushin       : Spin-Orbit,Spin-Spin,Magnetic field MRCI
   Miquel Garcia          : C-PCM and meta-GGA Hessian, CC/C-PCM, Gaussian charge scheme
   Yang Guo               : DLPNO-NEVPT2, F12-NEVPT2, CIM, IAO-localization
   Andreas Hansen         : Spin unrestricted coupled pair/coupled cluster methods
   Benjamin Helmich-Paris : MC-RPA, TRAH-SCF, COSX integrals
   Lee Huntington         : MR-EOM, pCC
   Robert Izsak           : Overlap fitted RIJCOSX, COSX-SCS-MP3, EOM
   Marcus Kettner         : VPT2
   Christian Kollmar      : KDIIS, OOCD, Brueckner-CCSD(T), CCSD density, CASPT2, CASPT2-K
   Simone Kossmann        : Meta GGA functionals, TD-DFT gradient, OOMP2, MP2 Hessian
   Martin Krupicka        : Initial AUTO-CI
   Lucas Lang             : DCDCAS
   Marvin Lechner         : AUTO-CI (C++ implementation), FIC-MRCC
   Dagmar Lenk            : GEPOL surface, SMD
   Dimitrios Liakos       : Extrapolation schemes; Compound Job, initial MDCI parallelization
   Dimitrios Manganas     : Further ROCIS development; embedding schemes
   Dimitrios Pantazis     : SARC Basis sets
   Anastasios Papadopoulos: AUTO-CI, single reference methods and gradients
   Taras Petrenko         : DFT Hessian,TD-DFT gradient, ASA, ECA, R-Raman, ABS, FL, XAS/XES, NRVS
   Peter Pinski           : DLPNO-MP2, DLPNO-MP2 Gradient
   Christoph Reimann      : Effective Core Potentials
   Marius Retegan         : Local ZFS, SOC
   Christoph Riplinger    : Optimizer, TS searches, QM/MM, DLPNO-CCSD(T), (RO)-DLPNO pert. Triples
   Tobias Risthaus        : Range-separated hybrids, TD-DFT gradient, RPA, STAB
   Michael Roemelt        : Original ROCIS implementation
   Masaaki Saitow         : Open-shell DLPNO-CCSD energy and density
   Barbara Sandhoefer     : DKH picture change effects
   Avijit Sen             : IP-ROCIS
   Kantharuban Sivalingam : CASSCF convergence, NEVPT2, FIC-MRCI
   Bernardo de Souza      : ESD, SOC TD-DFT
   Georgi Stoychev        : AutoAux, RI-MP2 NMR, DLPNO-MP2 response
   Willem Van den Heuvel  : Paramagnetic NMR
   Boris Wezisla          : Elementary symmetry handling
   Frank Wennmohs         : Technical directorship


 We gratefully acknowledge several colleagues who have allowed us to
 interface, adapt or use parts of their codes:
   Stefan Grimme, W. Hujo, H. Kruse, P. Pracht,  : VdW corrections, initial TS optimization,
                  C. Bannwarth, S. Ehlert          DFT functionals, gCP, sTDA/sTD-DF
   Ed Valeev, F. Pavosevic, A. Kumar             : LibInt (2-el integral package), F12 methods
   Garnet Chan, S. Sharma, J. Yang, R. Olivares  : DMRG
   Ulf Ekstrom                                   : XCFun DFT Library
   Mihaly Kallay                                 : mrcc  (arbitrary order and MRCC methods)
   Jiri Pittner, Ondrej Demel                    : Mk-CCSD
   Frank Weinhold                                : gennbo (NPA and NBO analysis)
   Christopher J. Cramer and Donald G. Truhlar   : smd solvation model
   Lars Goerigk                                  : TD-DFT with DH, B97 family of functionals
   V. Asgeirsson, H. Jonsson                     : NEB implementation
   FAccTs GmbH                                   : IRC, NEB, NEB-TS, DLPNO-Multilevel, CI-OPT
                                                   MM, QMMM, 2- and 3-layer-ONIOM, Crystal-QMMM,
                                                   LR-CPCM, SF, NACMEs, symmetry and pop. for TD-DFT,
                                                   nearIR, NL-DFT gradient (VV10), updates on ESD,
                                                   ML-optimized integration grids
   S Lehtola, MJT Oliveira, MAL Marques          : LibXC Library
   Liviu Ungur et al                             : ANISO software


 Your calculation uses the libint2 library for the computation of 2-el integrals
 For citations please refer to: http://libint.valeyev.net

 Your ORCA version has been built with support for libXC version: 5.1.0
 For citations please refer to: https://tddft.org/programs/libxc/

 This ORCA versions uses:
   CBLAS   interface :  Fast vector & matrix operations
   LAPACKE interface :  Fast linear algebra routines
   SCALAPACK package :  Parallel linear algebra routines
   Shared memory     :  Shared parallel matrices
   BLAS/LAPACK       :  OpenBLAS 0.3.15  USE64BITINT DYNAMIC_ARCH NO_AFFINITY SkylakeX SINGLE_THREADED
        Core in use  :  SkylakeX
   Copyright (c) 2011-2014, The OpenBLAS Project


Your calculation utilizes the atom-pairwise dispersion correction
with the Becke-Johnson damping scheme (D3BJ)
Cite in your paper:
S.Grimme, S.Ehrlich, L.Goerigk, J Comput Chem, (2011), 32, 1456–1465 
S.Grimme, J.Antony, S.Ehrlich and H.Krieg, J.Chem.Phys., 132, (2010), 154104 
   

================================================================================

----- Orbital basis set information -----
Your calculation utilizes the basis: def2-TZVP
   F. Weigend and R. Ahlrichs, Phys. Chem. Chem. Phys. 7, 3297 (2005).

----- AuxJ basis set information -----
Your calculation utilizes the auxiliary basis: def2/J
   F. Weigend, Phys. Chem. Chem. Phys. 8, 1057 (2006).

================================================================================
                                        WARNINGS
                       Please study these warnings very carefully!
================================================================================


WARNING: your system is open-shell and RHF/RKS was chosen
  ===> : WILL SWITCH to UHF/UKS


INFO   : the flag for use of the SHARK integral package has been found!

================================================================================
                                       INPUT FILE
================================================================================
NAME = ox_O.inp
|  1> ! engrad PBE0 D3BJ def2-TZVP  
|  2> %pal nprocs 4 end
|  3> %maxcore 3200
|  4>  
|  5> *xyz 0 3 
|  6> O   0.0 0.0 0.0
|  7> *
|  8> 
|  9>                          ****END OF INPUT****
================================================================================

                     *******************************
                     * Energy+Gradient Calculation *
                     *******************************

---------------------------------
CARTESIAN COORDINATES (ANGSTROEM)
---------------------------------
  O      0.000000    0.000000    0.000000

----------------------------
CARTESIAN COORDINATES (A.U.)
----------------------------
  NO LB      ZA    FRAG     MASS         X           Y           Z
   0 O     8.0000    0    15.999    0.000000    0.000000    0.000000

--------------------------------
INTERNAL COORDINATES (ANGSTROEM)
--------------------------------
 O      0   0   0     0.000000000000     0.00000000     0.00000000

---------------------------
INTERNAL COORDINATES (A.U.)
---------------------------
 O      0   0   0     0.000000000000     0.00000000     0.00000000

---------------------
BASIS SET INFORMATION
---------------------
There are 1 groups of distinct atoms

 Group   1 Type O   : 11s6p2d1f contracted to 5s3p2d1f pattern {62111/411/11/1}

Atom   0O    basis set group =>   1
---------------------------------
AUXILIARY/J BASIS SET INFORMATION
---------------------------------
There are 1 groups of distinct atoms

 Group   1 Type O   : 12s5p4d2f1g contracted to 6s4p3d1f1g pattern {711111/2111/211/2/1}

Atom   0O    basis set group =>   1


           ************************************************************
           *        Program running with 4 parallel MPI-processes     *
           *              working on a common directory               *
           ************************************************************
------------------------------------------------------------------------------
                           ORCA GTO INTEGRAL CALCULATION
                           -- RI-GTO INTEGRALS CHOSEN --
------------------------------------------------------------------------------
------------------------------------------------------------------------------
                   ___                                                        
                  /   \      - P O W E R E D   B Y -                         
                 /     \                                                     
                 |  |  |   _    _      __       _____    __    __             
                 |  |  |  | |  | |    /  \     |  _  \  |  |  /  |          
                  \  \/   | |  | |   /    \    | | | |  |  | /  /          
                 / \  \   | |__| |  /  /\  \   | |_| |  |  |/  /          
                |  |  |   |  __  | /  /__\  \  |    /   |      \           
                |  |  |   | |  | | |   __   |  |    \   |  |\   \          
                \     /   | |  | | |  |  |  |  | |\  \  |  | \   \       
                 \___/    |_|  |_| |__|  |__|  |_| \__\ |__|  \__/        
                                                                              
                      - O R C A' S   B I G   F R I E N D -                    
                                      &                                       
                       - I N T E G R A L  F E E D E R -                       
                                                                              
 v1 FN, 2020, v2 2021                                                         
------------------------------------------------------------------------------


Reading SHARK input file ox_O.SHARKINP.tmp ... ok
----------------------
SHARK INTEGRAL PACKAGE
----------------------

Number of atoms                             ...      1
Number of basis functions                   ...     31
Number of shells                            ...     11
Maximum angular momentum                    ...      3
Integral batch strategy                     ... SHARK/LIBINT Hybrid
RI-J (if used) integral strategy            ... SPLIT-RIJ (Revised 2003 algorithm where possible)
Printlevel                                  ...      1
Contraction scheme used                     ... SEGMENTED contraction
Coulomb Range Separation                    ... NOT USED
Exchange Range Separation                   ... NOT USED
Finite Nucleus Model                        ... NOT USED
Auxiliary Coulomb fitting basis             ... AVAILABLE
   # of basis functions in Aux-J            ...     49
   # of shells in Aux-J                     ...     15
   Maximum angular momentum in Aux-J        ...      4
Auxiliary J/K fitting basis                 ... NOT available
Auxiliary Correlation fitting basis         ... NOT available
Auxiliary 'external' fitting basis          ... NOT available
Integral threshold                          ...     2.500000e-11
Primitive cut-off                           ...     2.500000e-12
Primitive pair pre-selection threshold      ...     2.500000e-12

Calculating pre-screening integrals         ... done (  0.0 sec) Dimension = 11
Organizing shell pair data                  ... done (  0.0 sec)
Shell pair information
Total number of shell pairs                 ...        66
Shell pairs after pre-screening             ...        66
Total number of primitive shell pairs       ...       232
Primitive shell pairs kept                  ...       232
          la=0 lb=0:     15 shell pairs
          la=1 lb=0:     15 shell pairs
          la=1 lb=1:      6 shell pairs
          la=2 lb=0:     10 shell pairs
          la=2 lb=1:      6 shell pairs
          la=2 lb=2:      3 shell pairs
          la=3 lb=0:      5 shell pairs
          la=3 lb=1:      3 shell pairs
          la=3 lb=2:      2 shell pairs
          la=3 lb=3:      1 shell pairs

Calculating one electron integrals          ... done (  0.0 sec)
Calculating RI/J V-Matrix + Cholesky decomp.... done (  0.0 sec)
Calculating Nuclear repulsion               ... done (  0.0 sec) ENN=      0.000000000000 Eh

SHARK setup successfully completed in   0.1 seconds

Maximum memory used throughout the entire GTOINT-calculation: 13.7 MB


           ************************************************************
           *        Program running with 4 parallel MPI-processes     *
           *              working on a common directory               *
           ************************************************************
-------------------------------------------------------------------------------
                                 ORCA SCF
-------------------------------------------------------------------------------

------------
SCF SETTINGS
------------
Hamiltonian:
 Density Functional     Method          .... DFT(GTOs)
 Exchange Functional    Exchange        .... PBE
   PBE kappa parameter   XKappa         ....  0.804000
   PBE mue parameter    XMuePBE         ....  0.219520
 Correlation Functional Correlation     .... PBE
   PBE beta parameter  CBetaPBE         ....  0.066725
 LDA part of GGA corr.  LDAOpt          .... PW91-LDA
 Gradients option       PostSCFGGA      .... off
 Hybrid DFT is turned on
   Fraction HF Exchange ScalHFX         ....  0.250000
   Scaling of DF-GGA-X  ScalDFX         ....  0.750000
   Scaling of DF-GGA-C  ScalDFC         ....  1.000000
   Scaling of DF-LDA-C  ScalLDAC        ....  1.000000
   Perturbative correction              ....  0.000000
   Density functional embedding theory  .... OFF
   NL short-range parameter             ....  6.900000
 RI-approximation to the Coulomb term is turned on
   Number of AuxJ basis functions       .... 49
   RIJ-COSX (HFX calculated with COS-X)).... on


General Settings:
 Integral files         IntName         .... ox_O
 Hartree-Fock type      HFTyp           .... UHF
 Total Charge           Charge          ....    0
 Multiplicity           Mult            ....    3
 Number of Electrons    NEL             ....    8
 Basis Dimension        Dim             ....   31
 Nuclear Repulsion      ENuc            ....      0.0000000000 Eh

Convergence Acceleration:
 DIIS                   CNVDIIS         .... on
   Start iteration      DIISMaxIt       ....    12
   Startup error        DIISStart       ....  0.200000
   # of expansion vecs  DIISMaxEq       ....     5
   Bias factor          DIISBfac        ....   1.050
   Max. coefficient     DIISMaxC        ....  10.000
 Trust-Rad. Augm. Hess. CNVTRAH         .... auto
   Auto Start mean grad. ratio tolernc. ....  1.125000
   Auto Start start iteration           ....    20
   Auto Start num. interpolation iter.  ....    10
   Max. Number of Micro iterations      ....    16
   Max. Number of Macro iterations      .... Maxiter - #DIIS iter
   Number of Davidson start vectors     ....     2
   Converg. threshold I  (grad. norm)   ....   1.000e-05
   Converg. threshold II (energy diff.) ....   1.000e-08
   Grad. Scal. Fac. for Micro threshold ....   0.100
   Minimum threshold for Micro iter.    ....   0.010
   NR start threshold (gradient norm)   ....   0.001
   Initial trust radius                 ....   0.400
   Minimum AH scaling param. (alpha)    ....   1.000
   Maximum AH scaling param. (alpha)    .... 1000.000
   Orbital update algorithm             .... Taylor
   White noise on init. David. guess    .... on
   Maximum white noise                  ....   0.010
   Quad. conv. algorithm                .... NR
 SOSCF                  CNVSOSCF        .... off
 Level Shifting         CNVShift        .... on
   Level shift para.    LevelShift      ....    0.2500
   Turn off err/grad.   ShiftErr        ....    0.0010
 Zerner damping         CNVZerner       .... off
 Static damping         CNVDamp         .... on
   Fraction old density DampFac         ....    0.7000
   Max. Damping (<1)    DampMax         ....    0.9800
   Min. Damping (>=0)   DampMin         ....    0.0000
   Turn off err/grad.   DampErr         ....    0.1000
 Fernandez-Rico         CNVRico         .... off

SCF Procedure:
 Maximum # iterations   MaxIter         ....   125
 SCF integral mode      SCFMode         .... Direct
   Integral package                     .... SHARK and LIBINT hybrid scheme
 Reset frequency        DirectResetFreq ....    20
 Integral Threshold     Thresh          ....  2.500e-11 Eh
 Primitive CutOff       TCut            ....  2.500e-12 Eh

Convergence Tolerance:
 Convergence Check Mode ConvCheckMode   .... Total+1el-Energy
 Convergence forced     ConvForced      .... 0
 Energy Change          TolE            ....  1.000e-08 Eh
 1-El. energy change                    ....  1.000e-05 Eh
 DIIS Error             TolErr          ....  5.000e-07


Diagonalization of the overlap matrix:
Smallest eigenvalue                        ... 3.025e-02
Time for diagonalization                   ...    0.000 sec
Threshold for overlap eigenvalues          ... 1.000e-08
Number of eigenvalues below threshold      ... 0
Time for construction of square roots      ...    0.000 sec
Total time needed                          ...    0.001 sec

Time for model grid setup =    0.003 sec

------------------------------
INITIAL GUESS: MODEL POTENTIAL
------------------------------
Loading Hartree-Fock densities                     ... done
Calculating cut-offs                               ... done
Initializing the effective Hamiltonian             ... done
Setting up the integral package (SHARK)            ... done
Starting the Coulomb interaction                   ... done (   0.0 sec)
Reading the grid                                   ... done
Mapping shells                                     ... done
Starting the XC term evaluation                    ... done (   0.0 sec)
  promolecular density results
     # of electrons  =      7.999999806
     EX              =     -8.014623972
     EC              =     -0.245926542
     EX+EC           =     -8.260550515
Transforming the Hamiltonian                       ... done (   0.0 sec)
Diagonalizing the Hamiltonian                      ... done (   0.0 sec)
Back transforming the eigenvectors                 ... done (   0.0 sec)
Now organizing SCF variables                       ... done
                      ------------------
                      INITIAL GUESS DONE (   0.0 sec)
                      ------------------
-------------------
DFT GRID GENERATION
-------------------

General Integration Accuracy     IntAcc      ... 4.388
Radial Grid Type                 RadialGrid  ... OptM3 with GC (2021)
Angular Grid (max. ang.)         AngularGrid ... 4 (Lebedev-302)
Angular grid pruning method      GridPruning ... 4 (adaptive)
Weight generation scheme         WeightScheme... Becke
Basis function cutoff            BFCut       ... 1.0000e-11
Integration weight cutoff        WCut        ... 1.0000e-14
Angular grids for H and He will be reduced by one unit
Partially contracted basis set               ... off
Rotationally invariant grid construction     ... off

Total number of grid points                  ...     6136
Total number of batches                      ...       96
Average number of points per batch           ...       63
Average number of grid points per atom       ...     6136
Time for grid setup =    0.018 sec

--------------------
COSX GRID GENERATION
--------------------

GRIDX 1
-------
General Integration Accuracy     IntAcc      ... 3.816
Radial Grid Type                 RadialGrid  ... OptM3 with GC (2021)
Angular Grid (max. ang.)         AngularGrid ... 1 (Lebedev-50)
Angular grid pruning method      GridPruning ... 4 (adaptive)
Weight generation scheme         WeightScheme... Becke
Basis function cutoff            BFCut       ... 1.0000e-11
Integration weight cutoff        WCut        ... 1.0000e-14
Angular grids for H and He will be reduced by one unit
Partially contracted basis set               ... on
Rotationally invariant grid construction     ... off

Total number of grid points                  ...      772
Total number of batches                      ...       13
Average number of points per batch           ...       59
Average number of grid points per atom       ...      772
UseSFitting                                  ... on

GRIDX 2
-------
General Integration Accuracy     IntAcc      ... 4.020
Radial Grid Type                 RadialGrid  ... OptM3 with GC (2021)
Angular Grid (max. ang.)         AngularGrid ... 2 (Lebedev-110)
Angular grid pruning method      GridPruning ... 4 (adaptive)
Weight generation scheme         WeightScheme... Becke
Basis function cutoff            BFCut       ... 1.0000e-11
Integration weight cutoff        WCut        ... 1.0000e-14
Angular grids for H and He will be reduced by one unit
Partially contracted basis set               ... on
Rotationally invariant grid construction     ... off

Total number of grid points                  ...     1892
Total number of batches                      ...       30
Average number of points per batch           ...       63
Average number of grid points per atom       ...     1892
UseSFitting                                  ... on

GRIDX 3
-------
General Integration Accuracy     IntAcc      ... 4.338
Radial Grid Type                 RadialGrid  ... OptM3 with GC (2021)
Angular Grid (max. ang.)         AngularGrid ... 3 (Lebedev-194)
Angular grid pruning method      GridPruning ... 4 (adaptive)
Weight generation scheme         WeightScheme... Becke
Basis function cutoff            BFCut       ... 1.0000e-11
Integration weight cutoff        WCut        ... 1.0000e-14
Angular grids for H and He will be reduced by one unit
Partially contracted basis set               ... on
Rotationally invariant grid construction     ... off

Total number of grid points                  ...     4224
Total number of batches                      ...       67
Average number of points per batch           ...       63
Average number of grid points per atom       ...     4224
UseSFitting                                  ... on

Time for X-Grid setup             =    0.012 sec

--------------
SCF ITERATIONS
--------------
ITER       Energy         Delta-E        Max-DP      RMS-DP      [F,P]     Damp
               ***  Starting incremental Fock matrix formation  ***
  0    -75.0118044858   0.000000000000 0.00625652  0.00042330  0.0355843 0.7000
  1    -75.0135675908  -0.001763104930 0.00559165  0.00038451  0.0249864 0.7000
                               ***Turning on DIIS***
  2    -75.0148758602  -0.001308269469 0.01382912  0.00097847  0.0171607 0.0000
  3    -75.0181865097  -0.003310649444 0.00317242  0.00021855  0.0072922 0.0000
  4    -75.0183174805  -0.000130970849 0.00120605  0.00008156  0.0027953 0.0000
  5    -75.0183423382  -0.000024857638 0.00064376  0.00005149  0.0006936 0.0000
               *** Restarting incremental Fock matrix formation ***
                                   *** Resetting DIIS ***
  6    -75.0185019702  -0.000159632070 0.00179648  0.00007841  0.0136774 0.0000
  7    -75.0186151652  -0.000113194959 0.00035253  0.00001693  0.0011921 0.0000
  8    -75.0186186977  -0.000003532519 0.00007235  0.00000512  0.0001694 0.0000
  9    -75.0186188216  -0.000000123869 0.00000715  0.00000060  0.0000121 0.0000
 10    -75.0186188223  -0.000000000670 0.00000223  0.00000015  0.0000081 0.0000
                 **** Energy Check signals convergence ****

               *****************************************************
               *                     SUCCESS                       *
               *           SCF CONVERGED AFTER  11 CYCLES          *
               *****************************************************

Old exchange energy                            =     -2.049067789 Eh
New exchange energy                            =     -2.049067874 Eh
Exchange energy change after final integration =     -0.000000084 Eh
Total energy after final integration           =    -75.018618907 Eh
Final COS-X integration done in                =     0.020 sec

----------------
TOTAL SCF ENERGY
----------------

Total Energy       :          -75.01861891 Eh           -2041.36040 eV

Components:
Nuclear Repulsion  :            0.00000000 Eh               0.00000 eV
Electronic Energy  :          -75.01861891 Eh           -2041.36040 eV
One Electron Energy:         -103.23460625 Eh           -2809.15645 eV
Two Electron Energy:           28.21598734 Eh             767.79605 eV
Max COSX asymmetry :            0.00000002 Eh               0.00000 eV

Virial components:
Potential Energy   :         -149.84849693 Eh           -4077.58490 eV
Kinetic Energy     :           74.82987803 Eh            2036.22450 eV
Virial Ratio       :            2.00252227


DFT components:
N(Alpha)           :        5.000000233113 electrons
N(Beta)            :        3.000000215080 electrons
N(Total)           :        8.000000448193 electrons
E(X)               :       -6.118823020533 Eh       
E(C)               :       -0.234361958817 Eh       
E(XC)              :       -6.353184979349 Eh       
DFET-embed. en.    :        0.000000000000 Eh       

---------------
SCF CONVERGENCE
---------------

  Last Energy change         ...   -9.4701e-11  Tolerance :   1.0000e-08
  Last MAX-Density change    ...    0.0000e+00  Tolerance :   1.0000e-07
  Last RMS-Density change    ...    0.0000e+00  Tolerance :   5.0000e-09
  Last DIIS Error            ...    5.9749e-07  Tolerance :   5.0000e-07

             **** THE GBW FILE WAS UPDATED (ox_O.gbw) ****
             **** DENSITY ox_O.scfp WAS UPDATED ****
             **** ENERGY FILE WAS UPDATED (ox_O.en.tmp) ****
----------------------
UHF SPIN CONTAMINATION
----------------------

Warning: in a DFT calculation there is little theoretical justification to 
         calculate <S**2> as in Hartree-Fock theory. We will do it anyways
         but you should keep in mind that the values have only limited relevance

Expectation value of <S**2>     :     2.003486
Ideal value S*(S+1) for S=1.0   :     2.000000
Deviation                       :     0.003486

             **** THE GBW FILE WAS UPDATED (ox_O.gbw) ****
             **** DENSITY ox_O.scfp WAS UPDATED ****
----------------
ORBITAL ENERGIES
----------------
                 SPIN UP ORBITALS
  NO   OCC          E(Eh)            E(eV) 
   0   1.0000     -19.348476      -526.4988 
   1   1.0000      -1.049516       -28.5588 
   2   1.0000      -0.479354       -13.0439 
   3   1.0000      -0.479354       -13.0439 
   4   1.0000      -0.397221       -10.8089 
   5   0.0000       0.330555         8.9949 
   6   0.0000       0.392064        10.6686 
   7   0.0000       0.392064        10.6686 
   8   0.0000       0.422054        11.4847 
   9   0.0000       1.370230        37.2858 
  10   0.0000       1.370230        37.2858 
  11   0.0000       1.413232        38.4560 
  12   0.0000       1.413232        38.4560 
  13   0.0000       1.428998        38.8850 
  14   0.0000       2.421290        65.8867 
  15   0.0000       2.421290        65.8867 
  16   0.0000       2.485262        67.6274 
  17   0.0000       2.524903        68.7061 
  18   0.0000       4.980320       135.5214 
  19   0.0000       4.980320       135.5214 
  20   0.0000       5.026222       136.7705 
  21   0.0000       5.026222       136.7705 
  22   0.0000       5.054347       137.5358 
  23   0.0000       5.054347       137.5358 
  24   0.0000       5.063676       137.7896 
  25   0.0000       6.022826       163.8894 
  26   0.0000       6.022826       163.8894 
  27   0.0000       6.090022       165.7179 
  28   0.0000       6.090022       165.7179 
  29   0.0000       6.112966       166.3423 
  30   0.0000      42.694128      1161.7663 

                 SPIN DOWN ORBITALS
  NO   OCC          E(Eh)            E(eV) 
   0   1.0000     -19.294175      -525.0212 
   1   1.0000      -0.871725       -23.7208 
   2   1.0000      -0.345142        -9.3918 
   3   0.0000      -0.153593        -4.1795 
   4   0.0000      -0.153591        -4.1794 
   5   0.0000       0.374243        10.1837 
   6   0.0000       0.439646        11.9634 
   7   0.0000       0.471466        12.8292 
   8   0.0000       0.471466        12.8292 
   9   0.0000       1.479355        40.2553 
  10   0.0000       1.479356        40.2553 
  11   0.0000       1.484798        40.4034 
  12   0.0000       1.504468        40.9386 
  13   0.0000       1.504468        40.9387 
  14   0.0000       2.523340        68.6636 
  15   0.0000       2.567750        69.8720 
  16   0.0000       2.567752        69.8721 
  17   0.0000       2.626731        71.4770 
  18   0.0000       5.126052       139.4870 
  19   0.0000       5.126055       139.4870 
  20   0.0000       5.129554       139.5823 
  21   0.0000       5.132000       139.6488 
  22   0.0000       5.132002       139.6489 
  23   0.0000       5.147360       140.0668 
  24   0.0000       5.147360       140.0668 
  25   0.0000       6.197446       168.6411 
  26   0.0000       6.197451       168.6412 
  27   0.0000       6.210133       168.9863 
  28   0.0000       6.242108       169.8564 
  29   0.0000       6.242117       169.8566 
  30   0.0000      42.747012      1163.2053 

                    ********************************
                    * MULLIKEN POPULATION ANALYSIS *
                    ********************************

--------------------------------------------
MULLIKEN ATOMIC CHARGES AND SPIN POPULATIONS
--------------------------------------------
   0 O :   -0.000000    2.000000
Sum of atomic charges         :   -0.0000000
Sum of atomic spin populations:    2.0000000

-----------------------------------------------------
MULLIKEN REDUCED ORBITAL CHARGES AND SPIN POPULATIONS
-----------------------------------------------------
CHARGE
  0 O s       :     3.999364  s :     3.999364
      pz      :     1.649040  p :     3.999814
      px      :     1.350422
      py      :     1.000352
      dz2     :     0.000143  d :     0.000636
      dxz     :     0.000434
      dyz     :     0.000001
      dx2y2   :     0.000058
      dxy     :     0.000000
      f0      :     0.000036  f :     0.000186
      f+1     :     0.000057
      f-1     :     0.000017
      f+2     :     0.000035
      f-2     :     0.000030
      f+3     :     0.000006
      f-3     :     0.000006

SPIN
  0 O s       :    -0.000229  s :    -0.000229
      pz      :     0.350820  p :     1.999817
      px      :     0.649454
      py      :     0.999543
      dz2     :     0.000051  d :     0.000229
      dxz     :     0.000156
      dyz     :     0.000000
      dx2y2   :     0.000021
      dxy     :     0.000000
      f0      :     0.000036  f :     0.000183
      f+1     :     0.000055
      f-1     :     0.000017
      f+2     :     0.000034
      f-2     :     0.000030
      f+3     :     0.000006
      f-3     :     0.000006


                     *******************************
                     * LOEWDIN POPULATION ANALYSIS *
                     *******************************

-------------------------------------------
LOEWDIN ATOMIC CHARGES AND SPIN POPULATIONS
-------------------------------------------
   0 O :   -0.000000    2.000000

----------------------------------------------------
LOEWDIN REDUCED ORBITAL CHARGES AND SPIN POPULATIONS
----------------------------------------------------
CHARGE
  0 O s       :     3.999364  s :     3.999364
      pz      :     1.649040  p :     3.999814
      px      :     1.350422
      py      :     1.000352
      dz2     :     0.000143  d :     0.000636
      dxz     :     0.000434
      dyz     :     0.000001
      dx2y2   :     0.000058
      dxy     :     0.000000
      f0      :     0.000036  f :     0.000186
      f+1     :     0.000057
      f-1     :     0.000017
      f+2     :     0.000035
      f-2     :     0.000030
      f+3     :     0.000006
      f-3     :     0.000006

SPIN
  0 O s       :    -0.000229  s :    -0.000229
      pz      :     0.350820  p :     1.999817
      px      :     0.649454
      py      :     0.999543
      dz2     :     0.000051  d :     0.000229
      dxz     :     0.000156
      dyz     :     0.000000
      dx2y2   :     0.000021
      dxy     :     0.000000
      f0      :     0.000036  f :     0.000183
      f+1     :     0.000055
      f-1     :     0.000017
      f+2     :     0.000034
      f-2     :     0.000030
      f+3     :     0.000006
      f-3     :     0.000006


                      *****************************
                      * MAYER POPULATION ANALYSIS *
                      *****************************

  NA   - Mulliken gross atomic population
  ZA   - Total nuclear charge
  QA   - Mulliken gross atomic charge
  VA   - Mayer's total valence
  BVA  - Mayer's bonded valence
  FA   - Mayer's free valence

  ATOM       NA         ZA         QA         VA         BVA        FA
  0 O      8.0000     8.0000    -0.0000     2.0070     0.0000     2.0070

  Mayer bond orders larger than 0.100000


-------
TIMINGS
-------

Total SCF time: 0 days 0 hours 0 min 0 sec 

Total time                  ....       0.513 sec
Sum of individual times     ....       0.371 sec  ( 72.4%)

Fock matrix formation       ....       0.321 sec  ( 62.5%)
  Split-RI-J                ....       0.064 sec  ( 20.0% of F)
  Chain of spheres X        ....       0.213 sec  ( 66.4% of F)
  XC integration            ....       0.034 sec  ( 10.6% of F)
    Basis function eval.    ....       0.006 sec  ( 17.4% of XC)
    Density eval.           ....       0.007 sec  ( 19.7% of XC)
    XC-Functional eval.     ....       0.006 sec  ( 17.1% of XC)
    XC-Potential eval.      ....       0.008 sec  ( 23.9% of XC)
Diagonalization             ....       0.008 sec  (  1.5%)
Density matrix formation    ....       0.000 sec  (  0.0%)
Population analysis         ....       0.001 sec  (  0.2%)
Initial guess               ....       0.002 sec  (  0.3%)
Orbital Transformation      ....       0.000 sec  (  0.0%)
Orbital Orthonormalization  ....       0.000 sec  (  0.0%)
DIIS solution               ....       0.009 sec  (  1.7%)
Grid generation             ....       0.032 sec  (  6.2%)

Maximum memory used throughout the entire SCF-calculation: 57.2 MB


-------------------------------------------------------------------------------
                          DFT DISPERSION CORRECTION                            
                                                                               
                              DFTD3 V3.1  Rev 1                                
                          USING Becke-Johnson damping                          
-------------------------------------------------------------------------------
The PBE0 functional is recognized
Active option DFTDOPT                   ...         4   

molecular C6(AA) [au] = 15.451431 


            DFT-D V3
 parameters
 s6 scaling factor         :     1.0000 
 a1 scaling factor         :     0.4145 
 s8 scaling factor         :     1.2177 
 a2 scaling factor         :     4.8593 
 ad hoc parameters k1-k3   :    16.0000     1.3333    -4.0000 

 Edisp/kcal,au: -0.000000000000  -0.000000000000 
 E6   /kcal   :  -0.000000000 
 E8   /kcal   :  -0.000000000 
 % E8         :          -nan 

-------------------------   ----------------
Dispersion correction            0.000000000
-------------------------   ----------------


-------------------------   --------------------
FINAL SINGLE POINT ENERGY       -75.018618906787
-------------------------   --------------------



           ************************************************************
           *        Program running with 4 parallel MPI-processes     *
           *              working on a common directory               *
           ************************************************************
------------------------------------------------------------------------------
                         ORCA SCF GRADIENT CALCULATION
------------------------------------------------------------------------------

 ... reading COSX grid (gridx3)
Gradient of the Kohn-Sham DFT energy:
Kohn-Sham wavefunction type      ... UKS
Hartree-Fock exchange scaling    ...    0.250
Number of operators              ...    2
Number of atoms                  ...    1
Basis set dimensions             ...   31
Integral neglect threshold       ... 2.5e-11
Integral primitive cutoff        ... 2.5e-12
SHARK Integral package           ... ON

Nuc. rep. gradient       (SHARK) ... done (  0.0 sec)
HCore & Overlap gradient (SHARK) ... done (  0.0 sec)
RI-J gradient            (SHARK) ... done (  0.0 sec)
COSX-gradient                    ... done (  0.0 sec)
Exchange-correlation gradient    ... done
Dispersion correction            ... done

------------------
CARTESIAN GRADIENT
------------------

   1   O   :   -0.000000017    0.000000001    0.000000001

Difference to translation invariance:
           :   -0.0000000170    0.0000000011    0.0000000011

Difference to rotation invariance:
           :    0.0000000000    0.0000000000    0.0000000000

Norm of the cartesian gradient     ...    0.0000000170
RMS gradient                       ...    0.0000000098
MAX gradient                       ...    0.0000000170

-------
TIMINGS
-------

Total SCF gradient time            ...        0.135 sec

One electron gradient       ....       0.000 sec  (  0.3%)
RI-J Coulomb gradient       ....       0.025 sec  ( 18.8%)
COSX gradient               ....       0.027 sec  ( 20.3%)
XC gradient                 ....       0.007 sec  (  5.4%)

Maximum memory used throughout the entire SCFGRAD-calculation: 32.5 MB

                            ***************************************
                            *     ORCA property calculations      *
                            ***************************************

                                    ---------------------
                                    Active property flags
                                    ---------------------
   (+) Dipole Moment


------------------------------------------------------------------------------
                       ORCA ELECTRIC PROPERTIES CALCULATION
------------------------------------------------------------------------------

Dipole Moment Calculation                       ... on
Quadrupole Moment Calculation                   ... off
Polarizability Calculation                      ... off
GBWName                                         ... ox_O.gbw
Electron density                                ... ox_O.scfp
The origin for moment calculation is the CENTER OF MASS  = ( 0.000000,  0.000000  0.000000)

-------------
DIPOLE MOMENT
-------------
                                X             Y             Z
Electronic contribution:      0.00000       0.00000       0.00000
Nuclear contribution   :      0.00000       0.00000       0.00000
                        -----------------------------------------
Total Dipole Moment    :      0.00000       0.00000       0.00000
                        -----------------------------------------
Magnitude (a.u.)       :      0.00000
Magnitude (Debye)      :      0.00000



--------------------
Rotational spectrum 
--------------------
 
Rotational constants in cm-1:     0.000000     0.000000     0.000000 
Rotational constants in MHz :     0.000000     0.000000     0.000000 

 Dipole components along the rotational axes: 
x,y,z [a.u.] :     0.000000     0.000000     0.000000 
x,y,z [Debye]:     0.000000     0.000000     0.000000 

 

Timings for individual modules:

Sum of individual times         ...        1.143 sec (=   0.019 min)
GTO integral calculation        ...        0.201 sec (=   0.003 min)  17.5 %
SCF iterations                  ...        0.664 sec (=   0.011 min)  58.1 %
SCF Gradient evaluation         ...        0.279 sec (=   0.005 min)  24.4 %
                             ****ORCA TERMINATED NORMALLY****
TOTAL RUN TIME: 0 days 0 hours 0 minutes 1 seconds 389 msec

                                 *****************
                                 * O   R   C   A *
                                 *****************

                                            #,                                       
                                            ###                                      
                                            ####                                     
                                            #####                                    
                                            ######                                   
                                           ########,                                 
                                     ,,################,,,,,                         
                               ,,#################################,,                 
                          ,,##########################################,,             
                       ,#########################################, ''#####,          
                    ,#############################################,,   '####,        
                  ,##################################################,,,,####,       
                ,###########''''           ''''###############################       
              ,#####''   ,,,,##########,,,,          '''####'''          '####       
            ,##' ,,,,###########################,,,                        '##       
           ' ,,###''''                  '''############,,,                           
         ,,##''                                '''############,,,,        ,,,,,,###''
      ,#''                                            '''#######################'''  
     '                                                          ''''####''''         
             ,#######,   #######,   ,#######,      ##                                
            ,#'     '#,  ##    ##  ,#'     '#,    #''#        ######   ,####,        
            ##       ##  ##   ,#'  ##            #'  '#       #        #'  '#        
            ##       ##  #######   ##           ,######,      #####,   #    #        
            '#,     ,#'  ##    ##  '#,     ,#' ,#      #,         ##   #,  ,#        
             '#######'   ##     ##  '#######'  #'      '#     #####' # '####'        



                  #######################################################
                  #                        -***-                        #
                  #          Department of theory and spectroscopy      #
                  #    Directorship and core code : Frank Neese         #
                  #        Max Planck Institute fuer Kohlenforschung    #
                  #                Kaiser Wilhelm Platz 1               #
                  #                 D-45470 Muelheim/Ruhr               #
                  #                      Germany                        #
                  #                                                     #
                  #                  All rights reserved                #
                  #                        -***-                        #
                  #######################################################


                         Program Version 5.0.2 -  RELEASE  -


 With contributions from (in alphabetic order):
   Daniel Aravena         : Magnetic Suceptibility
   Michael Atanasov       : Ab Initio Ligand Field Theory (pilot matlab implementation)
   Alexander A. Auer      : GIAO ZORA, VPT2 properties, NMR spectrum
   Ute Becker             : Parallelization
   Giovanni Bistoni       : ED, misc. LED, open-shell LED, HFLD
   Martin Brehm           : Molecular dynamics
   Dmytro Bykov           : SCF Hessian
   Vijay G. Chilkuri      : MRCI spin determinant printing, contributions to CSF-ICE
   Dipayan Datta          : RHF DLPNO-CCSD density
   Achintya Kumar Dutta   : EOM-CC, STEOM-CC
   Dmitry Ganyushin       : Spin-Orbit,Spin-Spin,Magnetic field MRCI
   Miquel Garcia          : C-PCM and meta-GGA Hessian, CC/C-PCM, Gaussian charge scheme
   Yang Guo               : DLPNO-NEVPT2, F12-NEVPT2, CIM, IAO-localization
   Andreas Hansen         : Spin unrestricted coupled pair/coupled cluster methods
   Benjamin Helmich-Paris : MC-RPA, TRAH-SCF, COSX integrals
   Lee Huntington         : MR-EOM, pCC
   Robert Izsak           : Overlap fitted RIJCOSX, COSX-SCS-MP3, EOM
   Marcus Kettner         : VPT2
   Christian Kollmar      : KDIIS, OOCD, Brueckner-CCSD(T), CCSD density, CASPT2, CASPT2-K
   Simone Kossmann        : Meta GGA functionals, TD-DFT gradient, OOMP2, MP2 Hessian
   Martin Krupicka        : Initial AUTO-CI
   Lucas Lang             : DCDCAS
   Marvin Lechner         : AUTO-CI (C++ implementation), FIC-MRCC
   Dagmar Lenk            : GEPOL surface, SMD
   Dimitrios Liakos       : Extrapolation schemes; Compound Job, initial MDCI parallelization
   Dimitrios Manganas     : Further ROCIS development; embedding schemes
   Dimitrios Pantazis     : SARC Basis sets
   Anastasios Papadopoulos: AUTO-CI, single reference methods and gradients
   Taras Petrenko         : DFT Hessian,TD-DFT gradient, ASA, ECA, R-Raman, ABS, FL, XAS/XES, NRVS
   Peter Pinski           : DLPNO-MP2, DLPNO-MP2 Gradient
   Christoph Reimann      : Effective Core Potentials
   Marius Retegan         : Local ZFS, SOC
   Christoph Riplinger    : Optimizer, TS searches, QM/MM, DLPNO-CCSD(T), (RO)-DLPNO pert. Triples
   Tobias Risthaus        : Range-separated hybrids, TD-DFT gradient, RPA, STAB
   Michael Roemelt        : Original ROCIS implementation
   Masaaki Saitow         : Open-shell DLPNO-CCSD energy and density
   Barbara Sandhoefer     : DKH picture change effects
   Avijit Sen             : IP-ROCIS
   Kantharuban Sivalingam : CASSCF convergence, NEVPT2, FIC-MRCI
   Bernardo de Souza      : ESD, SOC TD-DFT
   Georgi Stoychev        : AutoAux, RI-MP2 NMR, DLPNO-MP2 response
   Willem Van den Heuvel  : Paramagnetic NMR
   Boris Wezisla          : Elementary symmetry handling
   Frank Wennmohs         : Technical directorship


 We gratefully acknowledge several colleagues who have allowed us to
 interface, adapt or use parts of their codes:
   Stefan Grimme, W. Hujo, H. Kruse, P. Pracht,  : VdW corrections, initial TS optimization,
                  C. Bannwarth, S. Ehlert          DFT functionals, gCP, sTDA/sTD-DF
   Ed Valeev, F. Pavosevic, A. Kumar             : LibInt (2-el integral package), F12 methods
   Garnet Chan, S. Sharma, J. Yang, R. Olivares  : DMRG
   Ulf Ekstrom                                   : XCFun DFT Library
   Mihaly Kallay                                 : mrcc  (arbitrary order and MRCC methods)
   Jiri Pittner, Ondrej Demel                    : Mk-CCSD
   Frank Weinhold                                : gennbo (NPA and NBO analysis)
   Christopher J. Cramer and Donald G. Truhlar   : smd solvation model
   Lars Goerigk                                  : TD-DFT with DH, B97 family of functionals
   V. Asgeirsson, H. Jonsson                     : NEB implementation
   FAccTs GmbH                                   : IRC, NEB, NEB-TS, DLPNO-Multilevel, CI-OPT
                                                   MM, QMMM, 2- and 3-layer-ONIOM, Crystal-QMMM,
                                                   LR-CPCM, SF, NACMEs, symmetry and pop. for TD-DFT,
                                                   nearIR, NL-DFT gradient (VV10), updates on ESD,
                                                   ML-optimized integration grids
   S Lehtola, MJT Oliveira, MAL Marques          : LibXC Library
   Liviu Ungur et al                             : ANISO software


 Your calculation uses the libint2 library for the computation of 2-el integrals
 For citations please refer to: http://libint.valeyev.net

 Your ORCA version has been built with support for libXC version: 5.1.0
 For citations please refer to: https://tddft.org/programs/libxc/

 This ORCA versions uses:
   CBLAS   interface :  Fast vector & matrix operations
   LAPACKE interface :  Fast linear algebra routines
   SCALAPACK package :  Parallel linear algebra routines
   Shared memory     :  Shared parallel matrices
   BLAS/LAPACK       :  OpenBLAS 0.3.15  USE64BITINT DYNAMIC_ARCH NO_AFFINITY SkylakeX SINGLE_THREADED
        Core in use  :  SkylakeX
   Copyright (c) 2011-2014, The OpenBLAS Project


Your calculation utilizes the atom-pairwise dispersion correction
with the Becke-Johnson damping scheme (D3BJ)
Cite in your paper:
S.Grimme, S.Ehrlich, L.Goerigk, J Comput Chem, (2011), 32, 1456–1465 
S.Grimme, J.Antony, S.Ehrlich and H.Krieg, J.Chem.Phys., 132, (2010), 154104 
   

================================================================================

----- Orbital basis set information -----
Your calculation utilizes the basis: def2-TZVP
   F. Weigend and R. Ahlrichs, Phys. Chem. Chem. Phys. 7, 3297 (2005).

----- AuxJ basis set information -----
Your calculation utilizes the auxiliary basis: def2/J
   F. Weigend, Phys. Chem. Chem. Phys. 8, 1057 (2006).

================================================================================
                                        WARNINGS
                       Please study these warnings very carefully!
================================================================================


WARNING: your system is open-shell and RHF/RKS was chosen
  ===> : WILL SWITCH to UHF/UKS


INFO   : the flag for use of the SHARK integral package has been found!

================================================================================
                                       INPUT FILE
================================================================================
NAME = ox_O.inp
|  1> ! engrad PBE0 D3BJ def2-TZVP  
|  2> %pal nprocs 4 end
|  3> %maxcore 3200
|  4>  
|  5> *xyz 0 3 
|  6> O   0.0 0.0 0.0
|  7> *
|  8> 
|  9>                          ****END OF INPUT****
================================================================================

                     *******************************
                     * Energy+Gradient Calculation *
                     *******************************

---------------------------------
CARTESIAN COORDINATES (ANGSTROEM)
---------------------------------
  O      0.000000    0.000000    0.000000

----------------------------
CARTESIAN COORDINATES (A.U.)
----------------------------
  NO LB      ZA    FRAG     MASS         X           Y           Z
   0 O     8.0000    0    15.999    0.000000    0.000000    0.000000

--------------------------------
INTERNAL COORDINATES (ANGSTROEM)
--------------------------------
 O      0   0   0     0.000000000000     0.00000000     0.00000000

---------------------------
INTERNAL COORDINATES (A.U.)
---------------------------
 O      0   0   0     0.000000000000     0.00000000     0.00000000

---------------------
BASIS SET INFORMATION
---------------------
There are 1 groups of distinct atoms

 Group   1 Type O   : 11s6p2d1f contracted to 5s3p2d1f pattern {62111/411/11/1}

Atom   0O    basis set group =>   1
---------------------------------
AUXILIARY/J BASIS SET INFORMATION
---------------------------------
There are 1 groups of distinct atoms

 Group   1 Type O   : 12s5p4d2f1g contracted to 6s4p3d1f1g pattern {711111/2111/211/2/1}

Atom   0O    basis set group =>   1

Checking for AutoStart:
The File: ox_O.gbw exists
Trying to determine its content:
     ... Fine, the file contains calculation information
     ... Fine, the calculation information was read
     ... Fine, the file contains a basis set
     ... Fine, the basis set was read
     ... Fine, the file contains a geometry
     ... Fine, the geometry was read
     ... Fine, the file contains a set of orbitals
     ... Fine, the orbitals can be read
     => possible old guess file was deleted
     => GBW file was renamed to GES file
     => GES file is set as startup file
     => Guess is set to MORead
     ... now leaving AutoStart



           ************************************************************
           *        Program running with 4 parallel MPI-processes     *
           *              working on a common directory               *
           ************************************************************
------------------------------------------------------------------------------
                           ORCA GTO INTEGRAL CALCULATION
                           -- RI-GTO INTEGRALS CHOSEN --
------------------------------------------------------------------------------
------------------------------------------------------------------------------
                   ___                                                        
                  /   \      - P O W E R E D   B Y -                         
                 /     \                                                     
                 |  |  |   _    _      __       _____    __    __             
                 |  |  |  | |  | |    /  \     |  _  \  |  |  /  |          
                  \  \/   | |  | |   /    \    | | | |  |  | /  /          
                 / \  \   | |__| |  /  /\  \   | |_| |  |  |/  /          
                |  |  |   |  __  | /  /__\  \  |    /   |      \           
                |  |  |   | |  | | |   __   |  |    \   |  |\   \          
                \     /   | |  | | |  |  |  |  | |\  \  |  | \   \       
                 \___/    |_|  |_| |__|  |__|  |_| \__\ |__|  \__/        
                                                                              
                      - O R C A' S   B I G   F R I E N D -                    
                                      &                                       
                       - I N T E G R A L  F E E D E R -                       
                                                                              
 v1 FN, 2020, v2 2021                                                         
------------------------------------------------------------------------------


Reading SHARK input file ox_O.SHARKINP.tmp ... ok
----------------------
SHARK INTEGRAL PACKAGE
----------------------

Number of atoms                             ...      1
Number of basis functions                   ...     31
Number of shells                            ...     11
Maximum angular momentum                    ...      3
Integral batch strategy                     ... SHARK/LIBINT Hybrid
RI-J (if used) integral strategy            ... SPLIT-RIJ (Revised 2003 algorithm where possible)
Printlevel                                  ...      1
Contraction scheme used                     ... SEGMENTED contraction
Coulomb Range Separation                    ... NOT USED
Exchange Range Separation                   ... NOT USED
Finite Nucleus Model                        ... NOT USED
Auxiliary Coulomb fitting basis             ... AVAILABLE
   # of basis functions in Aux-J            ...     49
   # of shells in Aux-J                     ...     15
   Maximum angular momentum in Aux-J        ...      4
Auxiliary J/K fitting basis                 ... NOT available
Auxiliary Correlation fitting basis         ... NOT available
Auxiliary 'external' fitting basis          ... NOT available
Integral threshold                          ...     2.500000e-11
Primitive cut-off                           ...     2.500000e-12
Primitive pair pre-selection threshold      ...     2.500000e-12

Calculating pre-screening integrals         ... done (  0.0 sec) Dimension = 11
Organizing shell pair data                  ... done (  0.0 sec)
Shell pair information
Total number of shell pairs                 ...        66
Shell pairs after pre-screening             ...        66
Total number of primitive shell pairs       ...       232
Primitive shell pairs kept                  ...       232
          la=0 lb=0:     15 shell pairs
          la=1 lb=0:     15 shell pairs
          la=1 lb=1:      6 shell pairs
          la=2 lb=0:     10 shell pairs
          la=2 lb=1:      6 shell pairs
          la=2 lb=2:      3 shell pairs
          la=3 lb=0:      5 shell pairs
          la=3 lb=1:      3 shell pairs
          la=3 lb=2:      2 shell pairs
          la=3 lb=3:      1 shell pairs

Calculating one electron integrals          ... done (  0.0 sec)
Calculating RI/J V-Matrix + Cholesky decomp.... done (  0.0 sec)
Calculating Nuclear repulsion               ... done (  0.0 sec) ENN=      0.000000000000 Eh

SHARK setup successfully completed in   0.1 seconds

Maximum memory used throughout the entire GTOINT-calculation: 13.7 MB


           ************************************************************
           *        Program running with 4 parallel MPI-processes     *
           *              working on a common directory               *
           ************************************************************
-------------------------------------------------------------------------------
                                 ORCA SCF
-------------------------------------------------------------------------------

------------
SCF SETTINGS
------------
Hamiltonian:
 Density Functional     Method          .... DFT(GTOs)
 Exchange Functional    Exchange        .... PBE
   PBE kappa parameter   XKappa         ....  0.804000
   PBE mue parameter    XMuePBE         ....  0.219520
 Correlation Functional Correlation     .... PBE
   PBE beta parameter  CBetaPBE         ....  0.066725
 LDA part of GGA corr.  LDAOpt          .... PW91-LDA
 Gradients option       PostSCFGGA      .... off
 Hybrid DFT is turned on
   Fraction HF Exchange ScalHFX         ....  0.250000
   Scaling of DF-GGA-X  ScalDFX         ....  0.750000
   Scaling of DF-GGA-C  ScalDFC         ....  1.000000
   Scaling of DF-LDA-C  ScalLDAC        ....  1.000000
   Perturbative correction              ....  0.000000
   Density functional embedding theory  .... OFF
   NL short-range parameter             ....  6.900000
 RI-approximation to the Coulomb term is turned on
   Number of AuxJ basis functions       .... 49
   RIJ-COSX (HFX calculated with COS-X)).... on


General Settings:
 Integral files         IntName         .... ox_O
 Hartree-Fock type      HFTyp           .... UHF
 Total Charge           Charge          ....    0
 Multiplicity           Mult            ....    3
 Number of Electrons    NEL             ....    8
 Basis Dimension        Dim             ....   31
 Nuclear Repulsion      ENuc            ....      0.0000000000 Eh

Convergence Acceleration:
 DIIS                   CNVDIIS         .... on
   Start iteration      DIISMaxIt       ....    12
   Startup error        DIISStart       ....  0.200000
   # of expansion vecs  DIISMaxEq       ....     5
   Bias factor          DIISBfac        ....   1.050
   Max. coefficient     DIISMaxC        ....  10.000
 Trust-Rad. Augm. Hess. CNVTRAH         .... auto
   Auto Start mean grad. ratio tolernc. ....  1.125000
   Auto Start start iteration           ....     1
   Auto Start num. interpolation iter.  ....    10
   Max. Number of Micro iterations      ....    16
   Max. Number of Macro iterations      .... Maxiter - #DIIS iter
   Number of Davidson start vectors     ....     2
   Converg. threshold I  (grad. norm)   ....   1.000e-05
   Converg. threshold II (energy diff.) ....   1.000e-08
   Grad. Scal. Fac. for Micro threshold ....   0.100
   Minimum threshold for Micro iter.    ....   0.010
   NR start threshold (gradient norm)   ....   0.001
   Initial trust radius                 ....   0.400
   Minimum AH scaling param. (alpha)    ....   1.000
   Maximum AH scaling param. (alpha)    .... 1000.000
   Orbital update algorithm             .... Taylor
   White noise on init. David. guess    .... on
   Maximum white noise                  ....   0.010
   Quad. conv. algorithm                .... NR
 SOSCF                  CNVSOSCF        .... off
 Level Shifting         CNVShift        .... on
   Level shift para.    LevelShift      ....    0.2500
   Turn off err/grad.   ShiftErr        ....    0.0010
 Zerner damping         CNVZerner       .... off
 Static damping         CNVDamp         .... on
   Fraction old density DampFac         ....    0.7000
   Max. Damping (<1)    DampMax         ....    0.9800
   Min. Damping (>=0)   DampMin         ....    0.0000
   Turn off err/grad.   DampErr         ....    0.1000
 Fernandez-Rico         CNVRico         .... off

SCF Procedure:
 Maximum # iterations   MaxIter         ....   125
 SCF integral mode      SCFMode         .... Direct
   Integral package                     .... SHARK and LIBINT hybrid scheme
 Reset frequency        DirectResetFreq ....    20
 Integral Threshold     Thresh          ....  2.500e-11 Eh
 Primitive CutOff       TCut            ....  2.500e-12 Eh

Convergence Tolerance:
 Convergence Check Mode ConvCheckMode   .... Total+1el-Energy
 Convergence forced     ConvForced      .... 0
 Energy Change          TolE            ....  1.000e-08 Eh
 1-El. energy change                    ....  1.000e-05 Eh
 DIIS Error             TolErr          ....  5.000e-07


Diagonalization of the overlap matrix:
Smallest eigenvalue                        ... 3.025e-02
Time for diagonalization                   ...    0.000 sec
Threshold for overlap eigenvalues          ... 1.000e-08
Number of eigenvalues below threshold      ... 0
Time for construction of square roots      ...    0.000 sec
Total time needed                          ...    0.001 sec

---------------------
INITIAL GUESS: MOREAD
---------------------
Guess MOs are being read from file: ox_O.ges
Input Geometry matches current geometry (good)
Input basis set matches current basis set (good)
MOs were renormalized
MOs were reorthogonalized (Cholesky)
                      ------------------
                      INITIAL GUESS DONE (   0.0 sec)
                      ------------------
-------------------
DFT GRID GENERATION
-------------------

General Integration Accuracy     IntAcc      ... 4.388
Radial Grid Type                 RadialGrid  ... OptM3 with GC (2021)
Angular Grid (max. ang.)         AngularGrid ... 4 (Lebedev-302)
Angular grid pruning method      GridPruning ... 4 (adaptive)
Weight generation scheme         WeightScheme... Becke
Basis function cutoff            BFCut       ... 1.0000e-11
Integration weight cutoff        WCut        ... 1.0000e-14
Angular grids for H and He will be reduced by one unit
Partially contracted basis set               ... off
Rotationally invariant grid construction     ... off

Total number of grid points                  ...     6136
Total number of batches                      ...       96
Average number of points per batch           ...       63
Average number of grid points per atom       ...     6136
Time for grid setup =    0.018 sec

--------------------
COSX GRID GENERATION
--------------------

GRIDX 1
-------
General Integration Accuracy     IntAcc      ... 3.816
Radial Grid Type                 RadialGrid  ... OptM3 with GC (2021)
Angular Grid (max. ang.)         AngularGrid ... 1 (Lebedev-50)
Angular grid pruning method      GridPruning ... 4 (adaptive)
Weight generation scheme         WeightScheme... Becke
Basis function cutoff            BFCut       ... 1.0000e-11
Integration weight cutoff        WCut        ... 1.0000e-14
Angular grids for H and He will be reduced by one unit
Partially contracted basis set               ... on
Rotationally invariant grid construction     ... off

Total number of grid points                  ...      772
Total number of batches                      ...       13
Average number of points per batch           ...       59
Average number of grid points per atom       ...      772
UseSFitting                                  ... on

GRIDX 2
-------
General Integration Accuracy     IntAcc      ... 4.020
Radial Grid Type                 RadialGrid  ... OptM3 with GC (2021)
Angular Grid (max. ang.)         AngularGrid ... 2 (Lebedev-110)
Angular grid pruning method      GridPruning ... 4 (adaptive)
Weight generation scheme         WeightScheme... Becke
Basis function cutoff            BFCut       ... 1.0000e-11
Integration weight cutoff        WCut        ... 1.0000e-14
Angular grids for H and He will be reduced by one unit
Partially contracted basis set               ... on
Rotationally invariant grid construction     ... off

Total number of grid points                  ...     1892
Total number of batches                      ...       30
Average number of points per batch           ...       63
Average number of grid points per atom       ...     1892
UseSFitting                                  ... on

GRIDX 3
-------
General Integration Accuracy     IntAcc      ... 4.338
Radial Grid Type                 RadialGrid  ... OptM3 with GC (2021)
Angular Grid (max. ang.)         AngularGrid ... 3 (Lebedev-194)
Angular grid pruning method      GridPruning ... 4 (adaptive)
Weight generation scheme         WeightScheme... Becke
Basis function cutoff            BFCut       ... 1.0000e-11
Integration weight cutoff        WCut        ... 1.0000e-14
Angular grids for H and He will be reduced by one unit
Partially contracted basis set               ... on
Rotationally invariant grid construction     ... off

Total number of grid points                  ...     4224
Total number of batches                      ...       67
Average number of points per batch           ...       63
Average number of grid points per atom       ...     4224
UseSFitting                                  ... on

Time for X-Grid setup             =    0.012 sec

--------------
SCF ITERATIONS
--------------
ITER       Energy         Delta-E        Max-DP      RMS-DP      [F,P]     Damp
               ***  Starting incremental Fock matrix formation  ***
  0    -75.0186188223   0.000000000000 0.00000016  0.00000001  0.0000006 0.7000
                 **** Energy Check signals convergence ****

               *****************************************************
               *                     SUCCESS                       *
               *           SCF CONVERGED AFTER   1 CYCLES          *
               *****************************************************

Old exchange energy                            =     -2.049067896 Eh
New exchange energy                            =     -2.049068026 Eh
Exchange energy change after final integration =     -0.000000131 Eh
Total energy after final integration           =    -75.018618953 Eh
Final COS-X integration done in                =     0.020 sec

----------------
TOTAL SCF ENERGY
----------------

Total Energy       :          -75.01861895 Eh           -2041.36040 eV

Components:
Nuclear Repulsion  :            0.00000000 Eh               0.00000 eV
Electronic Energy  :          -75.01861895 Eh           -2041.36040 eV
One Electron Energy:         -103.23460971 Eh           -2809.15655 eV
Two Electron Energy:           28.21599076 Eh             767.79614 eV
Max COSX asymmetry :            0.00000002 Eh               0.00000 eV

Virial components:
Potential Energy   :         -149.84850166 Eh           -4077.58503 eV
Kinetic Energy     :           74.82988271 Eh            2036.22463 eV
Virial Ratio       :            2.00252220


DFT components:
N(Alpha)           :        5.000000233113 electrons
N(Beta)            :        3.000000215080 electrons
N(Total)           :        8.000000448193 electrons
E(X)               :       -6.118823198389 Eh       
E(C)               :       -0.234361963768 Eh       
E(XC)              :       -6.353185162157 Eh       
DFET-embed. en.    :        0.000000000000 Eh       

---------------
SCF CONVERGENCE
---------------

  Last Energy change         ...   -6.2911e-11  Tolerance :   1.0000e-08
  Last MAX-Density change    ...    4.1132e-08  Tolerance :   1.0000e-07
  Last RMS-Density change    ...    2.4437e-09  Tolerance :   5.0000e-09
  Last DIIS Error            ...    5.4562e-07  Tolerance :   5.0000e-07

             **** THE GBW FILE WAS UPDATED (ox_O.gbw) ****
             **** DENSITY ox_O.scfp WAS UPDATED ****
             **** ENERGY FILE WAS UPDATED (ox_O.en.tmp) ****
----------------------
UHF SPIN CONTAMINATION
----------------------

Warning: in a DFT calculation there is little theoretical justification to 
         calculate <S**2> as in Hartree-Fock theory. We will do it anyways
         but you should keep in mind that the values have only limited relevance

Expectation value of <S**2>     :     2.003486
Ideal value S*(S+1) for S=1.0   :     2.000000
Deviation                       :     0.003486

             **** THE GBW FILE WAS UPDATED (ox_O.gbw) ****
             **** DENSITY ox_O.scfp WAS UPDATED ****
----------------
ORBITAL ENERGIES
----------------
                 SPIN UP ORBITALS
  NO   OCC          E(Eh)            E(eV) 
   0   1.0000     -19.348478      -526.4988 
   1   1.0000      -1.049516       -28.5588 
   2   1.0000      -0.479355       -13.0439 
   3   1.0000      -0.479355       -13.0439 
   4   1.0000      -0.397221       -10.8089 
   5   0.0000       0.330555         8.9949 
   6   0.0000       0.392063        10.6686 
   7   0.0000       0.392063        10.6686 
   8   0.0000       0.422053        11.4847 
   9   0.0000       1.370229        37.2858 
  10   0.0000       1.370229        37.2858 
  11   0.0000       1.413232        38.4560 
  12   0.0000       1.413232        38.4560 
  13   0.0000       1.428998        38.8850 
  14   0.0000       2.421290        65.8866 
  15   0.0000       2.421290        65.8866 
  16   0.0000       2.485262        67.6274 
  17   0.0000       2.524903        68.7061 
  18   0.0000       4.980320       135.5214 
  19   0.0000       4.980320       135.5214 
  20   0.0000       5.026222       136.7705 
  21   0.0000       5.026222       136.7705 
  22   0.0000       5.054346       137.5358 
  23   0.0000       5.054346       137.5358 
  24   0.0000       5.063676       137.7896 
  25   0.0000       6.022826       163.8894 
  26   0.0000       6.022826       163.8894 
  27   0.0000       6.090022       165.7179 
  28   0.0000       6.090022       165.7179 
  29   0.0000       6.112966       166.3423 
  30   0.0000      42.694126      1161.7662 

                 SPIN DOWN ORBITALS
  NO   OCC          E(Eh)            E(eV) 
   0   1.0000     -19.294176      -525.0212 
   1   1.0000      -0.871725       -23.7209 
   2   1.0000      -0.345143        -9.3918 
   3   0.0000      -0.153593        -4.1795 
   4   0.0000      -0.153592        -4.1794 
   5   0.0000       0.374243        10.1837 
   6   0.0000       0.439646        11.9634 
   7   0.0000       0.471466        12.8292 
   8   0.0000       0.471466        12.8292 
   9   0.0000       1.479355        40.2553 
  10   0.0000       1.479355        40.2553 
  11   0.0000       1.484798        40.4034 
  12   0.0000       1.504467        40.9386 
  13   0.0000       1.504468        40.9386 
  14   0.0000       2.523339        68.6636 
  15   0.0000       2.567750        69.8720 
  16   0.0000       2.567752        69.8721 
  17   0.0000       2.626730        71.4770 
  18   0.0000       5.126052       139.4870 
  19   0.0000       5.126054       139.4870 
  20   0.0000       5.129553       139.5822 
  21   0.0000       5.131999       139.6488 
  22   0.0000       5.132002       139.6489 
  23   0.0000       5.147359       140.0668 
  24   0.0000       5.147360       140.0668 
  25   0.0000       6.197445       168.6411 
  26   0.0000       6.197451       168.6412 
  27   0.0000       6.210132       168.9863 
  28   0.0000       6.242108       169.8564 
  29   0.0000       6.242116       169.8566 
  30   0.0000      42.747010      1163.2053 

                    ********************************
                    * MULLIKEN POPULATION ANALYSIS *
                    ********************************

--------------------------------------------
MULLIKEN ATOMIC CHARGES AND SPIN POPULATIONS
--------------------------------------------
   0 O :   -0.000000    2.000000
Sum of atomic charges         :   -0.0000000
Sum of atomic spin populations:    2.0000000

-----------------------------------------------------
MULLIKEN REDUCED ORBITAL CHARGES AND SPIN POPULATIONS
-----------------------------------------------------
CHARGE
  0 O s       :     3.999364  s :     3.999364
      pz      :     1.649041  p :     3.999814
      px      :     1.350421
      py      :     1.000352
      dz2     :     0.000143  d :     0.000636
      dxz     :     0.000434
      dyz     :     0.000001
      dx2y2   :     0.000058
      dxy     :     0.000000
      f0      :     0.000036  f :     0.000186
      f+1     :     0.000057
      f-1     :     0.000017
      f+2     :     0.000035
      f-2     :     0.000030
      f+3     :     0.000006
      f-3     :     0.000006

SPIN
  0 O s       :    -0.000229  s :    -0.000229
      pz      :     0.350819  p :     1.999817
      px      :     0.649455
      py      :     0.999543
      dz2     :     0.000051  d :     0.000229
      dxz     :     0.000156
      dyz     :     0.000000
      dx2y2   :     0.000021
      dxy     :     0.000000
      f0      :     0.000036  f :     0.000183
      f+1     :     0.000055
      f-1     :     0.000017
      f+2     :     0.000034
      f-2     :     0.000030
      f+3     :     0.000006
      f-3     :     0.000006


                     *******************************
                     * LOEWDIN POPULATION ANALYSIS *
                     *******************************

-------------------------------------------
LOEWDIN ATOMIC CHARGES AND SPIN POPULATIONS
-------------------------------------------
   0 O :   -0.000000    2.000000

----------------------------------------------------
LOEWDIN REDUCED ORBITAL CHARGES AND SPIN POPULATIONS
----------------------------------------------------
CHARGE
  0 O s       :     3.999364  s :     3.999364
      pz      :     1.649041  p :     3.999814
      px      :     1.350421
      py      :     1.000352
      dz2     :     0.000143  d :     0.000636
      dxz     :     0.000434
      dyz     :     0.000001
      dx2y2   :     0.000058
      dxy     :     0.000000
      f0      :     0.000036  f :     0.000186
      f+1     :     0.000057
      f-1     :     0.000017
      f+2     :     0.000035
      f-2     :     0.000030
      f+3     :     0.000006
      f-3     :     0.000006

SPIN
  0 O s       :    -0.000229  s :    -0.000229
      pz      :     0.350819  p :     1.999817
      px      :     0.649455
      py      :     0.999543
      dz2     :     0.000051  d :     0.000229
      dxz     :     0.000156
      dyz     :     0.000000
      dx2y2   :     0.000021
      dxy     :     0.000000
      f0      :     0.000036  f :     0.000183
      f+1     :     0.000055
      f-1     :     0.000017
      f+2     :     0.000034
      f-2     :     0.000030
      f+3     :     0.000006
      f-3     :     0.000006


                      *****************************
                      * MAYER POPULATION ANALYSIS *
                      *****************************

  NA   - Mulliken gross atomic population
  ZA   - Total nuclear charge
  QA   - Mulliken gross atomic charge
  VA   - Mayer's total valence
  BVA  - Mayer's bonded valence
  FA   - Mayer's free valence

  ATOM       NA         ZA         QA         VA         BVA        FA
  0 O      8.0000     8.0000     0.0000     2.0070     0.0000     2.0070

  Mayer bond orders larger than 0.100000


-------
TIMINGS
-------

Total SCF time: 0 days 0 hours 0 min 0 sec 

Total time                  ....       0.195 sec
Sum of individual times     ....       0.152 sec  ( 77.9%)

Fock matrix formation       ....       0.118 sec  ( 60.6%)
  Split-RI-J                ....       0.058 sec  ( 48.8% of F)
  Chain of spheres X        ....       0.054 sec  ( 45.8% of F)
  XC integration            ....       0.006 sec  (  4.7% of F)
    Basis function eval.    ....       0.001 sec  ( 17.5% of XC)
    Density eval.           ....       0.001 sec  ( 19.5% of XC)
    XC-Functional eval.     ....       0.001 sec  ( 17.2% of XC)
    XC-Potential eval.      ....       0.001 sec  ( 22.5% of XC)
Diagonalization             ....       0.001 sec  (  0.7%)
Density matrix formation    ....       0.000 sec  (  0.0%)
Population analysis         ....       0.001 sec  (  0.4%)
Initial guess               ....       0.001 sec  (  0.7%)
Orbital Transformation      ....       0.000 sec  (  0.0%)
[...]
Rotationally invariant grid construction     ... off

Total number of grid points                  ...     6136
Total number of batches                      ...       96
Average number of points per batch           ...       63
Average number of grid points per atom       ...     6136
Time for grid setup =    0.032 sec

--------------------
COSX GRID GENERATION
--------------------

GRIDX 1
-------
General Integration Accuracy     IntAcc      ... 3.816
Radial Grid Type                 RadialGrid  ... OptM3 with GC (2021)
Angular Grid (max. ang.)         AngularGrid ... 1 (Lebedev-50)
Angular grid pruning method      GridPruning ... 4 (adaptive)
Weight generation scheme         WeightScheme... Becke
Basis function cutoff            BFCut       ... 1.0000e-11
Integration weight cutoff        WCut        ... 1.0000e-14
Angular grids for H and He will be reduced by one unit
Partially contracted basis set               ... on
Rotationally invariant grid construction     ... off

Total number of grid points                  ...      772
Total number of batches                      ...       13
Average number of points per batch           ...       59
Average number of grid points per atom       ...      772
UseSFitting                                  ... on

GRIDX 2
-------
General Integration Accuracy     IntAcc      ... 4.020
Radial Grid Type                 RadialGrid  ... OptM3 with GC (2021)
Angular Grid (max. ang.)         AngularGrid ... 2 (Lebedev-110)
Angular grid pruning method      GridPruning ... 4 (adaptive)
Weight generation scheme         WeightScheme... Becke
Basis function cutoff            BFCut       ... 1.0000e-11
Integration weight cutoff        WCut        ... 1.0000e-14
Angular grids for H and He will be reduced by one unit
Partially contracted basis set               ... on
Rotationally invariant grid construction     ... off

Total number of grid points                  ...     1892
Total number of batches                      ...       30
Average number of points per batch           ...       63
Average number of grid points per atom       ...     1892
UseSFitting                                  ... on

GRIDX 3
-------
General Integration Accuracy     IntAcc      ... 4.338
Radial Grid Type                 RadialGrid  ... OptM3 with GC (2021)
Angular Grid (max. ang.)         AngularGrid ... 3 (Lebedev-194)
Angular grid pruning method      GridPruning ... 4 (adaptive)
Weight generation scheme         WeightScheme... Becke
Basis function cutoff            BFCut       ... 1.0000e-11
Integration weight cutoff        WCut        ... 1.0000e-14
Angular grids for H and He will be reduced by one unit
Partially contracted basis set               ... on
Rotationally invariant grid construction     ... off

Total number of grid points                  ...     4224
Total number of batches                      ...       67
Average number of points per batch           ...       63
Average number of grid points per atom       ...     4224
UseSFitting                                  ... on

Time for X-Grid setup             =    0.021 sec

--------------
SCF ITERATIONS
--------------
ITER       Energy         Delta-E        Max-DP      RMS-DP      [F,P]     Damp
               ***  Starting incremental Fock matrix formation  ***
  0    -75.0186188223   0.000000000000 0.00000016  0.00000001  0.0000006 0.7000
                 **** Energy Check signals convergence ****

               *****************************************************
               *                     SUCCESS                       *
               *           SCF CONVERGED AFTER   1 CYCLES          *
               *****************************************************

Old exchange energy                            =     -2.049067896 Eh
New exchange energy                            =     -2.049068026 Eh
Exchange energy change after final integration =     -0.000000131 Eh
Total energy after final integration           =    -75.018618953 Eh
Final COS-X integration done in                =     0.036 sec

----------------
TOTAL SCF ENERGY
----------------

Total Energy       :          -75.01861895 Eh           -2041.36040 eV

Components:
Nuclear Repulsion  :            0.00000000 Eh               0.00000 eV
Electronic Energy  :          -75.01861895 Eh           -2041.36040 eV
One Electron Energy:         -103.23460971 Eh           -2809.15655 eV
Two Electron Energy:           28.21599076 Eh             767.79614 eV
Max COSX asymmetry :            0.00000002 Eh               0.00000 eV

Virial components:
Potential Energy   :         -149.84850166 Eh           -4077.58503 eV
Kinetic Energy     :           74.82988271 Eh            2036.22463 eV
Virial Ratio       :            2.00252220


DFT components:
N(Alpha)           :        5.000000233113 electrons
N(Beta)            :        3.000000215080 electrons
N(Total)           :        8.000000448193 electrons
E(X)               :       -6.118823198389 Eh       
E(C)               :       -0.234361963768 Eh       
E(XC)              :       -6.353185162157 Eh       
DFET-embed. en.    :        0.000000000000 Eh       

---------------
SCF CONVERGENCE
---------------

  Last Energy change         ...   -6.2911e-11  Tolerance :   1.0000e-08
  Last MAX-Density change    ...    4.1132e-08  Tolerance :   1.0000e-07
  Last RMS-Density change    ...    2.4437e-09  Tolerance :   5.0000e-09
  Last DIIS Error            ...    5.4562e-07  Tolerance :   5.0000e-07

             **** THE GBW FILE WAS UPDATED (ox_O.gbw) ****
             **** DENSITY ox_O.scfp WAS UPDATED ****
             **** ENERGY FILE WAS UPDATED (ox_O.en.tmp) ****
----------------------
UHF SPIN CONTAMINATION
----------------------

Warning: in a DFT calculation there is little theoretical justification to 
         calculate <S**2> as in Hartree-Fock theory. We will do it anyways
         but you should keep in mind that the values have only limited relevance

Expectation value of <S**2>     :     2.003486
Ideal value S*(S+1) for S=1.0   :     2.000000
Deviation                       :     0.003486

             **** THE GBW FILE WAS UPDATED (ox_O.gbw) ****
             **** DENSITY ox_O.scfp WAS UPDATED ****
----------------
ORBITAL ENERGIES
----------------
                 SPIN UP ORBITALS
  NO   OCC          E(Eh)            E(eV) 
   0   1.0000     -19.348478      -526.4988 
   1   1.0000      -1.049516       -28.5588 
   2   1.0000      -0.479355       -13.0439 
   3   1.0000      -0.479355       -13.0439 
   4   1.0000      -0.397221       -10.8089 
   5   0.0000       0.330555         8.9949 
   6   0.0000       0.392063        10.6686 
   7   0.0000       0.392063        10.6686 
   8   0.0000       0.422053        11.4847 
   9   0.0000       1.370229        37.2858 
  10   0.0000       1.370229        37.2858 
  11   0.0000       1.413232        38.4560 
  12   0.0000       1.413232        38.4560 
  13   0.0000       1.428998        38.8850 
  14   0.0000       2.421290        65.8866 
  15   0.0000       2.421290        65.8866 
  16   0.0000       2.485262        67.6274 
  17   0.0000       2.524903        68.7061 
  18   0.0000       4.980320       135.5214 
  19   0.0000       4.980320       135.5214 
  20   0.0000       5.026222       136.7705 
  21   0.0000       5.026222       136.7705 
  22   0.0000       5.054346       137.5358 
  23   0.0000       5.054346       137.5358 
  24   0.0000       5.063676       137.7896 
  25   0.0000       6.022826       163.8894 
  26   0.0000       6.022826       163.8894 
  27   0.0000       6.090022       165.7179 
  28   0.0000       6.090022       165.7179 
  29   0.0000       6.112966       166.3423 
  30   0.0000      42.694126      1161.7662 

                 SPIN DOWN ORBITALS
  NO   OCC          E(Eh)            E(eV) 
   0   1.0000     -19.294176      -525.0212 
   1   1.0000      -0.871725       -23.7209 
   2   1.0000      -0.345143        -9.3918 
   3   0.0000      -0.153593        -4.1795 
   4   0.0000      -0.153592        -4.1794 
   5   0.0000       0.374243        10.1837 
   6   0.0000       0.439646        11.9634 
   7   0.0000       0.471466        12.8292 
   8   0.0000       0.471466        12.8292 
   9   0.0000       1.479355        40.2553 
  10   0.0000       1.479355        40.2553 
  11   0.0000       1.484798        40.4034 
  12   0.0000       1.504467        40.9386 
  13   0.0000       1.504468        40.9386 
  14   0.0000       2.523339        68.6636 
  15   0.0000       2.567750        69.8720 
  16   0.0000       2.567752        69.8721 
  17   0.0000       2.626730        71.4770 
  18   0.0000       5.126052       139.4870 
  19   0.0000       5.126054       139.4870 
  20   0.0000       5.129553       139.5822 
  21   0.0000       5.131999       139.6488 
  22   0.0000       5.132002       139.6489 
  23   0.0000       5.147359       140.0668 
  24   0.0000       5.147360       140.0668 
  25   0.0000       6.197445       168.6411 
  26   0.0000       6.197451       168.6412 
  27   0.0000       6.210132       168.9863 
  28   0.0000       6.242108       169.8564 
  29   0.0000       6.242116       169.8566 
  30   0.0000      42.747010      1163.2053 

                    ********************************
                    * MULLIKEN POPULATION ANALYSIS *
                    ********************************

--------------------------------------------
MULLIKEN ATOMIC CHARGES AND SPIN POPULATIONS
--------------------------------------------
   0 O :   -0.000000    2.000000
Sum of atomic charges         :   -0.0000000
Sum of atomic spin populations:    2.0000000

-----------------------------------------------------
MULLIKEN REDUCED ORBITAL CHARGES AND SPIN POPULATIONS
-----------------------------------------------------
CHARGE
  0 O s       :     3.999364  s :     3.999364
      pz      :     1.649041  p :     3.999814
      px      :     1.350421
      py      :     1.000352
      dz2     :     0.000143  d :     0.000636
      dxz     :     0.000434
      dyz     :     0.000001
      dx2y2   :     0.000058
      dxy     :     0.000000
      f0      :     0.000036  f :     0.000186
      f+1     :     0.000057
      f-1     :     0.000017
      f+2     :     0.000035
      f-2     :     0.000030
      f+3     :     0.000006
      f-3     :     0.000006

SPIN
  0 O s       :    -0.000229  s :    -0.000229
      pz      :     0.350819  p :     1.999817
      px      :     0.649455
      py      :     0.999543
      dz2     :     0.000051  d :     0.000229
      dxz     :     0.000156
      dyz     :     0.000000
      dx2y2   :     0.000021
      dxy     :     0.000000
      f0      :     0.000036  f :     0.000183
      f+1     :     0.000055
      f-1     :     0.000017
      f+2     :     0.000034
      f-2     :     0.000030
      f+3     :     0.000006
      f-3     :     0.000006


                     *******************************
                     * LOEWDIN POPULATION ANALYSIS *
                     *******************************

-------------------------------------------
LOEWDIN ATOMIC CHARGES AND SPIN POPULATIONS
-------------------------------------------
   0 O :   -0.000000    2.000000

----------------------------------------------------
LOEWDIN REDUCED ORBITAL CHARGES AND SPIN POPULATIONS
----------------------------------------------------
CHARGE
  0 O s       :     3.999364  s :     3.999364
      pz      :     1.649041  p :     3.999814
      px      :     1.350421
      py      :     1.000352
      dz2     :     0.000143  d :     0.000636
      dxz     :     0.000434
      dyz     :     0.000001
      dx2y2   :     0.000058
      dxy     :     0.000000
      f0      :     0.000036  f :     0.000186
      f+1     :     0.000057
      f-1     :     0.000017
      f+2     :     0.000035
      f-2     :     0.000030
      f+3     :     0.000006
      f-3     :     0.000006

SPIN
  0 O s       :    -0.000229  s :    -0.000229
      pz      :     0.350819  p :     1.999817
      px      :     0.649455
      py      :     0.999543
      dz2     :     0.000051  d :     0.000229
      dxz     :     0.000156
      dyz     :     0.000000
      dx2y2   :     0.000021
      dxy     :     0.000000
      f0      :     0.000036  f :     0.000183
      f+1     :     0.000055
      f-1     :     0.000017
      f+2     :     0.000034
      f-2     :     0.000030
      f+3     :     0.000006
      f-3     :     0.000006


                      *****************************
                      * MAYER POPULATION ANALYSIS *
                      *****************************

  NA   - Mulliken gross atomic population
  ZA   - Total nuclear charge
  QA   - Mulliken gross atomic charge
  VA   - Mayer's total valence
  BVA  - Mayer's bonded valence
  FA   - Mayer's free valence

  ATOM       NA         ZA         QA         VA         BVA        FA
  0 O      8.0000     8.0000     0.0000     2.0070     0.0000     2.0070

  Mayer bond orders larger than 0.100000


-------
TIMINGS
-------

Total SCF time: 0 days 0 hours 0 min 0 sec 

Total time                  ....       0.329 sec
Sum of individual times     ....       0.253 sec  ( 77.0%)

Fock matrix formation       ....       0.186 sec  ( 56.7%)
  Split-RI-J                ....       0.081 sec  ( 43.4% of F)
  Chain of spheres X        ....       0.093 sec  ( 50.1% of F)
  XC integration            ....       0.011 sec  (  5.8% of F)
    Basis function eval.    ....       0.002 sec  ( 18.2% of XC)
    Density eval.           ....       0.002 sec  ( 20.7% of XC)
    XC-Functional eval.     ....       0.002 sec  ( 17.1% of XC)
    XC-Potential eval.      ....       0.002 sec  ( 22.9% of XC)
Diagonalization             ....       0.002 sec  (  0.7%)
Density matrix formation    ....       0.000 sec  (  0.0%)
Population analysis         ....       0.001 sec  (  0.3%)
Initial guess               ....       0.009 sec  (  2.8%)
Orbital Transformation      ....       0.000 sec  (  0.0%)
Orbital Orthonormalization  ....       0.000 sec  (  0.1%)
DIIS solution               ....       0.002 sec  (  0.5%)
Grid generation             ....       0.053 sec  ( 16.0%)

Maximum memory used throughout the entire SCF-calculation: 57.2 MB


-------------------------------------------------------------------------------
                          DFT DISPERSION CORRECTION                            
                                                                               
                              DFTD3 V3.1  Rev 1                                
                          USING Becke-Johnson damping                          
-------------------------------------------------------------------------------
The PBE0 functional is recognized
Active option DFTDOPT                   ...         4   

molecular C6(AA) [au] = 15.451431 


            DFT-D V3
 parameters
 s6 scaling factor         :     1.0000 
 a1 scaling factor         :     0.4145 
 s8 scaling factor         :     1.2177 
 a2 scaling factor         :     4.8593 
 ad hoc parameters k1-k3   :    16.0000     1.3333    -4.0000 

 Edisp/kcal,au: -0.000000000000  -0.000000000000 
 E6   /kcal   :  -0.000000000 
 E8   /kcal   :  -0.000000000 
 % E8         :          -nan 

-------------------------   ----------------
Dispersion correction            0.000000000
-------------------------   ----------------


-------------------------   --------------------
FINAL SINGLE POINT ENERGY       -75.018618952954
-------------------------   --------------------



           ************************************************************
           *        Program running with 4 parallel MPI-processes     *
           *              working on a common directory               *
           ************************************************************
------------------------------------------------------------------------------
                         ORCA SCF GRADIENT CALCULATION
------------------------------------------------------------------------------

 ... reading COSX grid (gridx3)
Gradient of the Kohn-Sham DFT energy:
Kohn-Sham wavefunction type      ... UKS
Hartree-Fock exchange scaling    ...    0.250
Number of operators              ...    2
Number of atoms                  ...    1
Basis set dimensions             ...   31
Integral neglect threshold       ... 2.5e-11
Integral primitive cutoff        ... 2.5e-12
SHARK Integral package           ... ON

Nuc. rep. gradient       (SHARK) ... done (  0.0 sec)
HCore & Overlap gradient (SHARK) ... done (  0.0 sec)
RI-J gradient            (SHARK) ... done (  0.0 sec)
COSX-gradient                    ... done (  0.0 sec)
Exchange-correlation gradient    ... done
Dispersion correction            ... done

------------------
CARTESIAN GRADIENT
------------------

   1   O   :   -0.000000017    0.000000001    0.000000001

Difference to translation invariance:
           :   -0.0000000170    0.0000000011    0.0000000011

Difference to rotation invariance:
           :    0.0000000000    0.0000000000    0.0000000000

Norm of the cartesian gradient     ...    0.0000000170
RMS gradient                       ...    0.0000000098
MAX gradient                       ...    0.0000000170

-------
TIMINGS
-------

Total SCF gradient time            ...        0.211 sec

One electron gradient       ....       0.001 sec  (  0.3%)
RI-J Coulomb gradient       ....       0.035 sec  ( 16.6%)
COSX gradient               ....       0.046 sec  ( 21.8%)
XC gradient                 ....       0.009 sec  (  4.3%)

Maximum memory used throughout the entire SCFGRAD-calculation: 32.5 MB

                            ***************************************
                            *     ORCA property calculations      *
                            ***************************************

                                    ---------------------
                                    Active property flags
                                    ---------------------
   (+) Dipole Moment


------------------------------------------------------------------------------
                       ORCA ELECTRIC PROPERTIES CALCULATION
------------------------------------------------------------------------------

Dipole Moment Calculation                       ... on
Quadrupole Moment Calculation                   ... off
Polarizability Calculation                      ... off
GBWName                                         ... ox_O.gbw
Electron density                                ... ox_O.scfp
The origin for moment calculation is the CENTER OF MASS  = ( 0.000000,  0.000000  0.000000)

-------------
DIPOLE MOMENT
-------------
                                X             Y             Z
Electronic contribution:      0.00000       0.00000       0.00000
Nuclear contribution   :      0.00000       0.00000       0.00000
                        -----------------------------------------
Total Dipole Moment    :      0.00000       0.00000       0.00000
                        -----------------------------------------
Magnitude (a.u.)       :      0.00000
Magnitude (Debye)      :      0.00000



--------------------
Rotational spectrum 
--------------------
 
Rotational constants in cm-1:     0.000000     0.000000     0.000000 
Rotational constants in MHz :     0.000000     0.000000     0.000000 

 Dipole components along the rotational axes: 
x,y,z [a.u.] :     0.000000     0.000000     0.000000 
x,y,z [Debye]:     0.000000     0.000000     0.000000 

 

Timings for individual modules:

Sum of individual times         ...        1.134 sec (=   0.019 min)
GTO integral calculation        ...        0.269 sec (=   0.004 min)  23.7 %
SCF iterations                  ...        0.479 sec (=   0.008 min)  42.2 %
SCF Gradient evaluation         ...        0.386 sec (=   0.006 min)  34.0 %
                             ****ORCA TERMINATED NORMALLY****
TOTAL RUN TIME: 0 days 0 hours 0 minutes 1 seconds 429 msec
