
                                 *****************
                                 * O   R   C   A *
                                 *****************

                                            #,                                       
                                            ###                                      
                                            ####                                     
                                            #####                                    
                                            ######                                   
                                           ########,                                 
                                     ,,################,,,,,                         
                               ,,#################################,,                 
                          ,,##########################################,,             
                       ,#########################################, ''#####,          
                    ,#############################################,,   '####,        
                  ,##################################################,,,,####,       
                ,###########''''           ''''###############################       
              ,#####''   ,,,,##########,,,,          '''####'''          '####       
            ,##' ,,,,###########################,,,                        '##       
           ' ,,###''''                  '''############,,,                           
         ,,##''                                '''############,,,,        ,,,,,,###''
      ,#''                                            '''#######################'''  
     '                                                          ''''####''''         
             ,#######,   #######,   ,#######,      ##                                
            ,#'     '#,  ##    ##  ,#'     '#,    #''#        ######   ,####,        
            ##       ##  ##   ,#'  ##            #'  '#       #        #'  '#        
            ##       ##  #######   ##           ,######,      #####,   #    #        
            '#,     ,#'  ##    ##  '#,     ,#' ,#      #,         ##   #,  ,#        
             '#######'   ##     ##  '#######'  #'      '#     #####' # '####'        



                  #######################################################
                  #                        -***-                        #
                  #          Department of theory and spectroscopy      #
                  #    Directorship and core code : Frank Neese         #
                  #        Max Planck Institute fuer Kohlenforschung    #
                  #                Kaiser Wilhelm Platz 1               #
                  #                 D-45470 Muelheim/Ruhr               #
                  #                      Germany                        #
                  #                                                     #
                  #                  All rights reserved                #
                  #                        -***-                        #
                  #######################################################


                         Program Version 5.0.2 -  RELEASE  -


 With contributions from (in alphabetic order):
   Daniel Aravena         : Magnetic Suceptibility
   Michael Atanasov       : Ab Initio Ligand Field Theory (pilot matlab implementation)
   Alexander A. Auer      : GIAO ZORA, VPT2 properties, NMR spectrum
   Ute Becker             : Parallelization
   Giovanni Bistoni       : ED, misc. LED, open-shell LED, HFLD
   Martin Brehm           : Molecular dynamics
   Dmytro Bykov           : SCF Hessian
   Vijay G. Chilkuri      : MRCI spin determinant printing, contributions to CSF-ICE
   Dipayan Datta          : RHF DLPNO-CCSD density
   Achintya Kumar Dutta   : EOM-CC, STEOM-CC
   Dmitry Ganyushin       : Spin-Orbit,Spin-Spin,Magnetic field MRCI
   Miquel Garcia          : C-PCM and meta-GGA Hessian, CC/C-PCM, Gaussian charge scheme
   Yang Guo               : DLPNO-NEVPT2, F12-NEVPT2, CIM, IAO-localization
   Andreas Hansen         : Spin unrestricted coupled pair/coupled cluster methods
   Benjamin Helmich-Paris : MC-RPA, TRAH-SCF, COSX integrals
   Lee Huntington         : MR-EOM, pCC
   Robert Izsak           : Overlap fitted RIJCOSX, COSX-SCS-MP3, EOM
   Marcus Kettner         : VPT2
   Christian Kollmar      : KDIIS, OOCD, Brueckner-CCSD(T), CCSD density, CASPT2, CASPT2-K
   Simone Kossmann        : Meta GGA functionals, TD-DFT gradient, OOMP2, MP2 Hessian
   Martin Krupicka        : Initial AUTO-CI
   Lucas Lang             : DCDCAS
   Marvin Lechner         : AUTO-CI (C++ implementation), FIC-MRCC
   Dagmar Lenk            : GEPOL surface, SMD
   Dimitrios Liakos       : Extrapolation schemes; Compound Job, initial MDCI parallelization
   Dimitrios Manganas     : Further ROCIS development; embedding schemes
   Dimitrios Pantazis     : SARC Basis sets
   Anastasios Papadopoulos: AUTO-CI, single reference methods and gradients
   Taras Petrenko         : DFT Hessian,TD-DFT gradient, ASA, ECA, R-Raman, ABS, FL, XAS/XES, NRVS
   Peter Pinski           : DLPNO-MP2, DLPNO-MP2 Gradient
   Christoph Reimann      : Effective Core Potentials
   Marius Retegan         : Local ZFS, SOC
   Christoph Riplinger    : Optimizer, TS searches, QM/MM, DLPNO-CCSD(T), (RO)-DLPNO pert. Triples
   Tobias Risthaus        : Range-separated hybrids, TD-DFT gradient, RPA, STAB
   Michael Roemelt        : Original ROCIS implementation
   Masaaki Saitow         : Open-shell DLPNO-CCSD energy and density
   Barbara Sandhoefer     : DKH picture change effects
   Avijit Sen             : IP-ROCIS
   Kantharuban Sivalingam : CASSCF convergence, NEVPT2, FIC-MRCI
   Bernardo de Souza      : ESD, SOC TD-DFT
   Georgi Stoychev        : AutoAux, RI-MP2 NMR, DLPNO-MP2 response
   Willem Van den Heuvel  : Paramagnetic NMR
   Boris Wezisla          : Elementary symmetry handling
   Frank Wennmohs         : Technical directorship


 We gratefully acknowledge several colleagues who have allowed us to
 interface, adapt or use parts of their codes:
   Stefan Grimme, W. Hujo, H. Kruse, P. Pracht,  : VdW corrections, initial TS optimization,
                  C. Bannwarth, S. Ehlert          DFT functionals, gCP, sTDA/sTD-DF
   Ed Valeev, F. Pavosevic, A. Kumar             : LibInt (2-el integral package), F12 methods
   Garnet Chan, S. Sharma, J. Yang, R. Olivares  : DMRG
   Ulf Ekstrom                                   : XCFun DFT Library
   Mihaly Kallay                                 : mrcc  (arbitrary order and MRCC methods)
   Jiri Pittner, Ondrej Demel                    : Mk-CCSD
   Frank Weinhold                                : gennbo (NPA and NBO analysis)
   Christopher J. Cramer and Donald G. Truhlar   : smd solvation model
   Lars Goerigk                                  : TD-DFT with DH, B97 family of functionals
   V. Asgeirsson, H. Jonsson                     : NEB implementation
   FAccTs GmbH                                   : IRC, NEB, NEB-TS, DLPNO-Multilevel, CI-OPT
                                                   MM, QMMM, 2- and 3-layer-ONIOM, Crystal-QMMM,
                                                   LR-CPCM, SF, NACMEs, symmetry and pop. for TD-DFT,
                                                   nearIR, NL-DFT gradient (VV10), updates on ESD,
                                                   ML-optimized integration grids
   S Lehtola, MJT Oliveira, MAL Marques          : LibXC Library
   Liviu Ungur et al                             : ANISO software


 Your calculation uses the libint2 library for the computation of 2-el integrals
 For citations please refer to: http://libint.valeyev.net

 Your ORCA version has been built with support for libXC version: 5.1.0
 For citations please refer to: https://tddft.org/programs/libxc/

 This ORCA versions uses:
   CBLAS   interface :  Fast vector & matrix operations
   LAPACKE interface :  Fast linear algebra routines
   SCALAPACK package :  Parallel linear algebra routines
   Shared memory     :  Shared parallel matrices
   BLAS/LAPACK       :  OpenBLAS 0.3.15  USE64BITINT DYNAMIC_ARCH NO_AFFINITY SkylakeX SINGLE_THREADED
        Core in use  :  SkylakeX
   Copyright (c) 2011-2014, The OpenBLAS Project


Your calculation utilizes the atom-pairwise dispersion correction
with the Becke-Johnson damping scheme (D3BJ)
Cite in your paper:
S.Grimme, S.Ehrlich, L.Goerigk, J Comput Chem, (2011), 32, 1456–1465 
S.Grimme, J.Antony, S.Ehrlich and H.Krieg, J.Chem.Phys., 132, (2010), 154104 
   

================================================================================

----- Orbital basis set information -----
Your calculation utilizes the basis: def2-TZVP
   F. Weigend and R. Ahlrichs, Phys. Chem. Chem. Phys. 7, 3297 (2005).

----- AuxJ basis set information -----
Your calculation utilizes the auxiliary basis: def2/J
   F. Weigend, Phys. Chem. Chem. Phys. 8, 1057 (2006).

================================================================================
                                        WARNINGS
                       Please study these warnings very carefully!
================================================================================


WARNING: Geometry Optimization
  ===> : Switching off AutoStart
         For restart on a previous wavefunction, please use MOREAD

INFO   : the flag for use of the SHARK integral package has been found!

================================================================================
                                       INPUT FILE
================================================================================
NAME = ox.inp
|  1> ! tightopt PBE0 D3BJ def2-TZVP 
|  2> %pal nprocs 8 end
|  3> %maxcore 4000
|  4>  
|  5> *xyz 0 1 
|  6> O   0.0 0.7942 0.0
|  7> C   -0.765 -0.4128 -0.0
|  8> C   0.765 -0.4128 -0.0
|  9> H   -1.2729 -0.6922 0.9231
| 10> H   -1.2729 -0.6922 -0.9231
| 11> H   1.2729 -0.6922 -0.9231
| 12> H   1.2729 -0.6922 0.9231
| 13> *
| 14> 
| 15>                          ****END OF INPUT****
================================================================================

                       *****************************
                       * Geometry Optimization Run *
                       *****************************

Geometry optimization settings:
Update method            Update   .... BFGS
Choice of coordinates    CoordSys .... Z-matrix Internals
Initial Hessian          InHess   .... Almoef's Model

Convergence Tolerances:
Energy Change            TolE     ....  1.0000e-06 Eh
Max. Gradient            TolMAXG  ....  1.0000e-04 Eh/bohr
RMS Gradient             TolRMSG  ....  3.0000e-05 Eh/bohr
Max. Displacement        TolMAXD  ....  1.0000e-03 bohr
RMS Displacement         TolRMSD  ....  6.0000e-04 bohr
Strict Convergence                ....  False
------------------------------------------------------------------------------
                        ORCA OPTIMIZATION COORDINATE SETUP
------------------------------------------------------------------------------

The optimization will be done in new redundant internal coordinates
Making redundant internal coordinates   ...  (new redundants) done
Evaluating the initial hessian          ...  (Almloef) done
Evaluating the coordinates              ...  done
Calculating the B-matrix                .... done
Calculating the G-matrix                .... done
Diagonalizing the G-matrix              .... done
The first mode is                       ....   17
The number of degrees of freedom        ....   15

    -----------------------------------------------------------------
                    Redundant Internal Coordinates


    -----------------------------------------------------------------
         Definition                    Initial Value    Approx d2E/dq
    -----------------------------------------------------------------
      1. B(C   1,O   0)                  1.4290         0.484881   
      2. B(C   2,C   1)                  1.5300         0.373575   
      3. B(C   2,O   0)                  1.4290         0.484881   
      4. B(H   3,C   1)                  1.0900         0.360075   
      5. B(H   4,C   1)                  1.0900         0.360075   
      6. B(H   5,C   2)                  1.0900         0.360075   
      7. B(H   6,C   2)                  1.0900         0.360075   
      8. A(C   1,O   0,C   2)           64.7333         0.392668   
      9. A(O   0,C   1,H   3)          117.7714         0.336569   
     10. A(H   3,C   1,H   4)          115.7449         0.290833   
     11. A(O   0,C   1,H   4)          117.7714         0.336569   
     12. A(C   2,C   1,H   3)          117.7721         0.324315   
     13. A(C   2,C   1,H   4)          117.7721         0.324315   
     14. A(O   0,C   1,C   2)           57.6334         0.377638   
     15. A(C   1,C   2,H   6)          117.7721         0.324315   
     16. A(O   0,C   2,C   1)           57.6334         0.377638   
     17. A(O   0,C   2,H   6)          117.7714         0.336569   
     18. A(C   1,C   2,H   5)          117.7721         0.324315   
     19. A(H   5,C   2,H   6)          115.7449         0.290833   
     20. A(O   0,C   2,H   5)          117.7714         0.336569   
     21. D(H   4,C   1,O   0,C   2)   -106.8409         0.018555   
     22. D(H   3,C   1,O   0,C   2)    106.8409         0.018555   
     23. D(H   5,C   2,O   0,C   1)    106.8409         0.018555   
     24. D(O   0,C   2,C   1,H   3)   -106.8398         0.011144   
     25. D(O   0,C   2,C   1,H   4)    106.8398         0.011144   
     26. D(H   5,C   2,C   1,O   0)   -106.8398         0.011144   
     27. D(H   5,C   2,C   1,H   4)      0.0000         0.011144   
     28. D(H   5,C   2,C   1,H   3)    146.3204         0.011144   
     29. D(H   6,C   2,C   1,O   0)    106.8398         0.011144   
     30. D(H   6,C   2,C   1,H   3)      0.0000         0.011144   
     31. D(H   6,C   2,C   1,H   4)   -146.3204         0.011144   
     32. D(H   6,C   2,O   0,C   1)   -106.8409         0.018555   
    -----------------------------------------------------------------

Number of atoms                         .... 7
Number of degrees of freedom            .... 32

         *************************************************************
         *                GEOMETRY OPTIMIZATION CYCLE   1            *
         *************************************************************
---------------------------------
CARTESIAN COORDINATES (ANGSTROEM)
---------------------------------
  O      0.000000    0.794200    0.000000
  C     -0.765000   -0.412800   -0.000000
  C      0.765000   -0.412800   -0.000000
  H     -1.272900   -0.692200    0.923100
  H     -1.272900   -0.692200   -0.923100
  H      1.272900   -0.692200   -0.923100
  H      1.272900   -0.692200    0.923100

----------------------------
CARTESIAN COORDINATES (A.U.)
----------------------------
  NO LB      ZA    FRAG     MASS         X           Y           Z
   0 O     8.0000    0    15.999    0.000000    1.500820    0.000000
   1 C     6.0000    0    12.011   -1.445640   -0.780079   -0.000000
   2 C     6.0000    0    12.011    1.445640   -0.780079   -0.000000
   3 H     1.0000    0     1.008   -2.405432   -1.308068    1.744406
   4 H     1.0000    0     1.008   -2.405432   -1.308068   -1.744406
   5 H     1.0000    0     1.008    2.405432   -1.308068   -1.744406
   6 H     1.0000    0     1.008    2.405432   -1.308068    1.744406

--------------------------------
INTERNAL COORDINATES (ANGSTROEM)
--------------------------------
 O      0   0   0     0.000000000000     0.00000000     0.00000000
 C      1   0   0     1.429011546489     0.00000000     0.00000000
 C      1   2   0     1.429011546489    64.73327613     0.00000000
 H      2   1   3     1.090018522778   117.77141923   106.84092489
 H      2   1   3     1.090018522778   117.77141923   253.15907511
 H      3   1   2     1.090018522778   117.77141923   106.84092489
 H      3   1   2     1.090018522778   117.77141923   253.15907511

---------------------------
INTERNAL COORDINATES (A.U.)
---------------------------
 O      0   0   0     0.000000000000     0.00000000     0.00000000
 C      1   0   0     2.700440465076     0.00000000     0.00000000
 C      1   2   0     2.700440465076    64.73327613     0.00000000
 H      2   1   3     2.059836488953   117.77141923   106.84092489
 H      2   1   3     2.059836488953   117.77141923   253.15907511
 H      3   1   2     2.059836488953   117.77141923   106.84092489
 H      3   1   2     2.059836488953   117.77141923   253.15907511

---------------------
BASIS SET INFORMATION
---------------------
There are 3 groups of distinct atoms

 Group   1 Type O   : 11s6p2d1f contracted to 5s3p2d1f pattern {62111/411/11/1}
 Group   2 Type C   : 11s6p2d1f contracted to 5s3p2d1f pattern {62111/411/11/1}
 Group   3 Type H   : 5s1p contracted to 3s1p pattern {311/1}

Atom   0O    basis set group =>   1
Atom   1C    basis set group =>   2
Atom   2C    basis set group =>   2
Atom   3H    basis set group =>   3
Atom   4H    basis set group =>   3
Atom   5H    basis set group =>   3
Atom   6H    basis set group =>   3
---------------------------------
AUXILIARY/J BASIS SET INFORMATION
---------------------------------
There are 3 groups of distinct atoms

 Group   1 Type O   : 12s5p4d2f1g contracted to 6s4p3d1f1g pattern {711111/2111/211/2/1}
 Group   2 Type C   : 12s5p4d2f1g contracted to 6s4p3d1f1g pattern {711111/2111/211/2/1}
 Group   3 Type H   : 5s2p1d contracted to 3s1p1d pattern {311/2/1}

Atom   0O    basis set group =>   1
Atom   1C    basis set group =>   2
Atom   2C    basis set group =>   2
Atom   3H    basis set group =>   3
Atom   4H    basis set group =>   3
Atom   5H    basis set group =>   3
Atom   6H    basis set group =>   3


           ************************************************************
           *        Program running with 8 parallel MPI-processes     *
           *              working on a common directory               *
           ************************************************************
------------------------------------------------------------------------------
                           ORCA GTO INTEGRAL CALCULATION
                           -- RI-GTO INTEGRALS CHOSEN --
------------------------------------------------------------------------------
------------------------------------------------------------------------------
                   ___                                                        
                  /   \      - P O W E R E D   B Y -                         
                 /     \                                                     
                 |  |  |   _    _      __       _____    __    __             
                 |  |  |  | |  | |    /  \     |  _  \  |  |  /  |          
                  \  \/   | |  | |   /    \    | | | |  |  | /  /          
                 / \  \   | |__| |  /  /\  \   | |_| |  |  |/  /          
                |  |  |   |  __  | /  /__\  \  |    /   |      \           
                |  |  |   | |  | | |   __   |  |    \   |  |\   \          
                \     /   | |  | | |  |  |  |  | |\  \  |  | \   \       
                 \___/    |_|  |_| |__|  |__|  |_| \__\ |__|  \__/        
                                                                              
                      - O R C A' S   B I G   F R I E N D -                    
                                      &                                       
                       - I N T E G R A L  F E E D E R -                       
                                                                              
 v1 FN, 2020, v2 2021                                                         
------------------------------------------------------------------------------


Reading SHARK input file ox.SHARKINP.tmp ... ok
----------------------
SHARK INTEGRAL PACKAGE
----------------------

Number of atoms                             ...      7
Number of basis functions                   ...    117
Number of shells                            ...     49
Maximum angular momentum                    ...      3
Integral batch strategy                     ... SHARK/LIBINT Hybrid
RI-J (if used) integral strategy            ... SPLIT-RIJ (Revised 2003 algorithm where possible)
Printlevel                                  ...      1
Contraction scheme used                     ... SEGMENTED contraction
Coulomb Range Separation                    ... NOT USED
Exchange Range Separation                   ... NOT USED
Finite Nucleus Model                        ... NOT USED
Auxiliary Coulomb fitting basis             ... AVAILABLE
   # of basis functions in Aux-J            ...    191
   # of shells in Aux-J                     ...     65
   Maximum angular momentum in Aux-J        ...      4
Auxiliary J/K fitting basis                 ... NOT available
Auxiliary Correlation fitting basis         ... NOT available
Auxiliary 'external' fitting basis          ... NOT available
Integral threshold                          ...     2.500000e-11
Primitive cut-off                           ...     2.500000e-12
Primitive pair pre-selection threshold      ...     2.500000e-12

Calculating pre-screening integrals         ... done (  0.0 sec) Dimension = 49
Organizing shell pair data                  ... done (  0.0 sec)
Shell pair information
Total number of shell pairs                 ...      1225
Shell pairs after pre-screening             ...      1220
Total number of primitive shell pairs       ...      3648
Primitive shell pairs kept                  ...      3148
          la=0 lb=0:    373 shell pairs
          la=1 lb=0:    351 shell pairs
          la=1 lb=1:     91 shell pairs
          la=2 lb=0:    162 shell pairs
          la=2 lb=1:     78 shell pairs
          la=2 lb=2:     21 shell pairs
          la=3 lb=0:     81 shell pairs
          la=3 lb=1:     39 shell pairs
          la=3 lb=2:     18 shell pairs
          la=3 lb=3:      6 shell pairs

Calculating one electron integrals          ... done (  0.0 sec)
Calculating RI/J V-Matrix + Cholesky decomp.... done (  0.0 sec)
Calculating Nuclear repulsion               ... done (  0.0 sec) ENN=     74.437080177191 Eh

SHARK setup successfully completed in   0.2 seconds

Maximum memory used throughout the entire GTOINT-calculation: 14.9 MB


           ************************************************************
           *        Program running with 8 parallel MPI-processes     *
           *              working on a common directory               *
           ************************************************************
-------------------------------------------------------------------------------
                                 ORCA SCF
-------------------------------------------------------------------------------

------------
SCF SETTINGS
------------
Hamiltonian:
 Density Functional     Method          .... DFT(GTOs)
 Exchange Functional    Exchange        .... PBE
   PBE kappa parameter   XKappa         ....  0.804000
   PBE mue parameter    XMuePBE         ....  0.219520
 Correlation Functional Correlation     .... PBE
   PBE beta parameter  CBetaPBE         ....  0.066725
 LDA part of GGA corr.  LDAOpt          .... PW91-LDA
 Gradients option       PostSCFGGA      .... off
 Hybrid DFT is turned on
   Fraction HF Exchange ScalHFX         ....  0.250000
   Scaling of DF-GGA-X  ScalDFX         ....  0.750000
   Scaling of DF-GGA-C  ScalDFC         ....  1.000000
   Scaling of DF-LDA-C  ScalLDAC        ....  1.000000
   Perturbative correction              ....  0.000000
   Density functional embedding theory  .... OFF
   NL short-range parameter             ....  6.900000
 RI-approximation to the Coulomb term is turned on
   Number of AuxJ basis functions       .... 191
   RIJ-COSX (HFX calculated with COS-X)).... on


General Settings:
 Integral files         IntName         .... ox
 Hartree-Fock type      HFTyp           .... RHF
 Total Charge           Charge          ....    0
 Multiplicity           Mult            ....    1
 Number of Electrons    NEL             ....   24
 Basis Dimension        Dim             ....  117
 Nuclear Repulsion      ENuc            ....     74.4370801772 Eh

Convergence Acceleration:
 DIIS                   CNVDIIS         .... on
   Start iteration      DIISMaxIt       ....    12
   Startup error        DIISStart       ....  0.200000
   # of expansion vecs  DIISMaxEq       ....     5
   Bias factor          DIISBfac        ....   1.050
   Max. coefficient     DIISMaxC        ....  10.000
 Trust-Rad. Augm. Hess. CNVTRAH         .... auto
   Auto Start mean grad. ratio tolernc. ....  1.125000
   Auto Start start iteration           ....    20
   Auto Start num. interpolation iter.  ....    10
   Max. Number of Micro iterations      ....    16
   Max. Number of Macro iterations      .... Maxiter - #DIIS iter
   Number of Davidson start vectors     ....     2
   Converg. threshold I  (grad. norm)   ....   1.000e-05
   Converg. threshold II (energy diff.) ....   1.000e-08
   Grad. Scal. Fac. for Micro threshold ....   0.100
   Minimum threshold for Micro iter.    ....   0.010
   NR start threshold (gradient norm)   ....   0.001
   Initial trust radius                 ....   0.400
   Minimum AH scaling param. (alpha)    ....   1.000
   Maximum AH scaling param. (alpha)    .... 1000.000
   Orbital update algorithm             .... Taylor
   White noise on init. David. guess    .... on
   Maximum white noise                  ....   0.010
   Quad. conv. algorithm                .... NR
 SOSCF                  CNVSOSCF        .... on
   Start iteration      SOSCFMaxIt      ....   150
   Startup grad/error   SOSCFStart      ....  0.003300
 Level Shifting         CNVShift        .... on
   Level shift para.    LevelShift      ....    0.2500
   Turn off err/grad.   ShiftErr        ....    0.0010
 Zerner damping         CNVZerner       .... off
 Static damping         CNVDamp         .... on
   Fraction old density DampFac         ....    0.7000
   Max. Damping (<1)    DampMax         ....    0.9800
   Min. Damping (>=0)   DampMin         ....    0.0000
   Turn off err/grad.   DampErr         ....    0.1000
 Fernandez-Rico         CNVRico         .... off

SCF Procedure:
 Maximum # iterations   MaxIter         ....   125
 SCF integral mode      SCFMode         .... Direct
   Integral package                     .... SHARK and LIBINT hybrid scheme
 Reset frequency        DirectResetFreq ....    20
 Integral Threshold     Thresh          ....  2.500e-11 Eh
 Primitive CutOff       TCut            ....  2.500e-12 Eh

Convergence Tolerance:
 Convergence Check Mode ConvCheckMode   .... Total+1el-Energy
 Convergence forced     ConvForced      .... 0
 Energy Change          TolE            ....  1.000e-08 Eh
 1-El. energy change                    ....  1.000e-05 Eh
 Orbital Gradient       TolG            ....  1.000e-05
 Orbital Rotation angle TolX            ....  1.000e-05
 DIIS Error             TolErr          ....  5.000e-07


Diagonalization of the overlap matrix:
Smallest eigenvalue                        ... 5.697e-04
Time for diagonalization                   ...    0.011 sec
Threshold for overlap eigenvalues          ... 1.000e-08
Number of eigenvalues below threshold      ... 0
Time for construction of square roots      ...    0.003 sec
Total time needed                          ...    0.014 sec

Time for model grid setup =    0.036 sec

------------------------------
INITIAL GUESS: MODEL POTENTIAL
------------------------------
Loading Hartree-Fock densities                     ... done
Calculating cut-offs                               ... done
Initializing the effective Hamiltonian             ... done
Setting up the integral package (SHARK)            ... done
Starting the Coulomb interaction                   ... done (   0.0 sec)
Reading the grid                                   ... done
Mapping shells                                     ... done
Starting the XC term evaluation                    ... done (   0.0 sec)
  promolecular density results
     # of electrons  =     23.997045249
     EX              =    -19.523870545
     EC              =     -0.779686186
     EX+EC           =    -20.303556732
Transforming the Hamiltonian                       ... done (   0.0 sec)
Diagonalizing the Hamiltonian                      ... done (   0.0 sec)
Back transforming the eigenvectors                 ... done (   0.0 sec)
Now organizing SCF variables                       ... done
                      ------------------
                      INITIAL GUESS DONE (   0.1 sec)
                      ------------------
-------------------
DFT GRID GENERATION
-------------------

General Integration Accuracy     IntAcc      ... 4.388
Radial Grid Type                 RadialGrid  ... OptM3 with GC (2021)
Angular Grid (max. ang.)         AngularGrid ... 4 (Lebedev-302)
Angular grid pruning method      GridPruning ... 4 (adaptive)
Weight generation scheme         WeightScheme... Becke
Basis function cutoff            BFCut       ... 1.0000e-11
Integration weight cutoff        WCut        ... 1.0000e-14
Angular grids for H and He will be reduced by one unit
Partially contracted basis set               ... off
Rotationally invariant grid construction     ... off

Total number of grid points                  ...    31320
Total number of batches                      ...      493
Average number of points per batch           ...       63
Average number of grid points per atom       ...     4474
Time for grid setup =    0.109 sec

--------------------
COSX GRID GENERATION
--------------------

GRIDX 1
-------
General Integration Accuracy     IntAcc      ... 3.816
Radial Grid Type                 RadialGrid  ... OptM3 with GC (2021)
Angular Grid (max. ang.)         AngularGrid ... 1 (Lebedev-50)
Angular grid pruning method      GridPruning ... 4 (adaptive)
Weight generation scheme         WeightScheme... Becke
Basis function cutoff            BFCut       ... 1.0000e-11
Integration weight cutoff        WCut        ... 1.0000e-14
Angular grids for H and He will be reduced by one unit
Partially contracted basis set               ... on
Rotationally invariant grid construction     ... off

Total number of grid points                  ...     4036
Total number of batches                      ...       68
Average number of points per batch           ...       59
Average number of grid points per atom       ...      577
UseSFitting                                  ... on

GRIDX 2
-------
General Integration Accuracy     IntAcc      ... 4.020
Radial Grid Type                 RadialGrid  ... OptM3 with GC (2021)
Angular Grid (max. ang.)         AngularGrid ... 2 (Lebedev-110)
Angular grid pruning method      GridPruning ... 4 (adaptive)
Weight generation scheme         WeightScheme... Becke
Basis function cutoff            BFCut       ... 1.0000e-11
Integration weight cutoff        WCut        ... 1.0000e-14
Angular grids for H and He will be reduced by one unit
Partially contracted basis set               ... on
Rotationally invariant grid construction     ... off

Total number of grid points                  ...     8711
Total number of batches                      ...      140
Average number of points per batch           ...       62
Average number of grid points per atom       ...     1244
UseSFitting                                  ... on

GRIDX 3
-------
General Integration Accuracy     IntAcc      ... 4.338
Radial Grid Type                 RadialGrid  ... OptM3 with GC (2021)
Angular Grid (max. ang.)         AngularGrid ... 3 (Lebedev-194)
Angular grid pruning method      GridPruning ... 4 (adaptive)
Weight generation scheme         WeightScheme... Becke
Basis function cutoff            BFCut       ... 1.0000e-11
Integration weight cutoff        WCut        ... 1.0000e-14
Angular grids for H and He will be reduced by one unit
Partially contracted basis set               ... on
Rotationally invariant grid construction     ... off

Total number of grid points                  ...    19277
Total number of batches                      ...      306
Average number of points per batch           ...       62
Average number of grid points per atom       ...     2754
UseSFitting                                  ... on

Time for X-Grid setup             =    0.072 sec

--------------
SCF ITERATIONS
--------------
ITER       Energy         Delta-E        Max-DP      RMS-DP      [F,P]     Damp
               ***  Starting incremental Fock matrix formation  ***
  0   -153.6126141533   0.000000000000 0.03205096  0.00107580  0.1689740 0.7000
  1   -153.6385426506  -0.025928497364 0.01743099  0.00079160  0.0711962 0.7000
                               ***Turning on DIIS***
  2   -153.6492764882  -0.010733837506 0.02392485  0.00135366  0.0303449 0.0000
  3   -153.6668030434  -0.017526555251 0.01357470  0.00059198  0.0384125 0.0000
  4   -153.6700561308  -0.003253087437 0.00359379  0.00015986  0.0078595 0.0000
  5   -153.6702212739  -0.000165143075 0.00126283  0.00005426  0.0034341 0.0000
                      *** Initiating the SOSCF procedure ***
                           *** Shutting down DIIS ***
                      *** Re-Reading the Fockian *** 
                      *** Removing any level shift *** 
ITER      Energy       Delta-E        Grad      Rot      Max-DP    RMS-DP
  6   -153.67024089  -0.0000196114  0.000130  0.000130  0.000658  0.000025
               *** Restarting incremental Fock matrix formation ***
  7   -153.67023025   0.0000106336  0.000042  0.000059  0.000083  0.000003
  8   -153.67023024   0.0000000147  0.000070  0.000036  0.000053  0.000002
  9   -153.67023027  -0.0000000371  0.000007  0.000012  0.000012  0.000001
 10   -153.67023027   0.0000000005  0.000009  0.000007  0.000007  0.000000
                 **** Energy Check signals convergence ****
              ***Rediagonalizing the Fockian in SOSCF/NRSCF***

               *****************************************************
               *                     SUCCESS                       *
               *           SCF CONVERGED AFTER  11 CYCLES          *
               *****************************************************

Old exchange energy                            =     -4.987597258 Eh
New exchange energy                            =     -4.987599507 Eh
Exchange energy change after final integration =     -0.000002249 Eh
Total energy after final integration           =   -153.670232527 Eh
Final COS-X integration done in                =     0.250 sec

----------------
TOTAL SCF ENERGY
----------------

Total Energy       :         -153.67023253 Eh           -4181.57961 eV

Components:
Nuclear Repulsion  :           74.43708018 Eh            2025.53593 eV
Electronic Energy  :         -228.10731270 Eh           -6207.11554 eV
One Electron Energy:         -355.58169692 Eh           -9675.86988 eV
Two Electron Energy:          127.47438422 Eh            3468.75434 eV
Max COSX asymmetry :            0.00000352 Eh               0.00010 eV

Virial components:
Potential Energy   :         -306.48882200 Eh           -8339.98484 eV
Kinetic Energy     :          152.81858947 Eh            4158.40523 eV
Virial Ratio       :            2.00557290


DFT components:
N(Alpha)           :       12.000005288423 electrons
N(Beta)            :       12.000005288423 electrons
N(Total)           :       24.000010576847 electrons
E(X)               :      -14.936022439516 Eh       
E(C)               :       -0.788538153597 Eh       
E(XC)              :      -15.724560593114 Eh       
DFET-embed. en.    :        0.000000000000 Eh       

---------------
SCF CONVERGENCE
---------------

  Last Energy change         ...   -3.6978e-09  Tolerance :   1.0000e-08
  Last MAX-Density change    ...    5.5511e-16  Tolerance :   1.0000e-07
  Last RMS-Density change    ...    1.9271e-17  Tolerance :   5.0000e-09
  Last Orbital Gradient      ...    1.7391e-07  Tolerance :   1.0000e-05
  Last Orbital Rotation      ...    2.1861e-07  Tolerance :   1.0000e-05

             **** THE GBW FILE WAS UPDATED (ox.gbw) ****
             **** DENSITY ox.scfp WAS UPDATED ****
             **** ENERGY FILE WAS UPDATED (ox.en.tmp) ****
             **** THE GBW FILE WAS UPDATED (ox.gbw) ****
             **** DENSITY ox.scfp WAS UPDATED ****
----------------
ORBITAL ENERGIES
----------------

  NO   OCC          E(Eh)            E(eV) 
   0   2.0000     -19.229870      -523.2714 
   1   2.0000     -10.279756      -279.7264 
   2   2.0000     -10.279510      -279.7197 
   3   2.0000      -1.102368       -29.9969 
   4   2.0000      -0.694625       -18.9017 
   5   2.0000      -0.656323       -17.8594 
   6   2.0000      -0.525340       -14.2952 
   7   2.0000      -0.495796       -13.4913 
   8   2.0000      -0.427303       -11.6275 
   9   2.0000      -0.401932       -10.9371 
  10   2.0000      -0.314932        -8.5697 
  11   2.0000      -0.295282        -8.0350 
  12   0.0000       0.060584         1.6486 
  13   0.0000       0.073495         1.9999 
  14   0.0000       0.082798         2.2530 
  15   0.0000       0.101603         2.7647 
  16   0.0000       0.102978         2.8022 
  17   0.0000       0.153910         4.1881 
  18   0.0000       0.193048         5.2531 
  19   0.0000       0.208588         5.6760 
  20   0.0000       0.266218         7.2442 
  21   0.0000       0.273464         7.4413 
  22   0.0000       0.296721         8.0742 
  23   0.0000       0.330392         8.9904 
  24   0.0000       0.371358        10.1052 
  25   0.0000       0.386261        10.5107 
  26   0.0000       0.401830        10.9344 
  27   0.0000       0.415892        11.3170 
  28   0.0000       0.447503        12.1772 
  29   0.0000       0.459525        12.5043 
  30   0.0000       0.489240        13.3129 
  31   0.0000       0.510711        13.8972 
  32   0.0000       0.528629        14.3847 
  33   0.0000       0.697765        18.9872 
  34   0.0000       0.708192        19.2709 
  35   0.0000       0.717184        19.5156 
  36   0.0000       0.823206        22.4006 
  37   0.0000       0.889261        24.1980 
  38   0.0000       0.910927        24.7876 
  39   0.0000       0.931086        25.3361 
  40   0.0000       1.010837        27.5063 
  41   0.0000       1.018227        27.7074 
  42   0.0000       1.050989        28.5989 
  43   0.0000       1.079438        29.3730 
  44   0.0000       1.134493        30.8711 
  45   0.0000       1.363162        37.0935 
  46   0.0000       1.456868        39.6434 
  47   0.0000       1.490774        40.5660 
  48   0.0000       1.496235        40.7146 
  49   0.0000       1.514441        41.2100 
  50   0.0000       1.569620        42.7115 
  51   0.0000       1.621043        44.1108 
  52   0.0000       1.668471        45.4014 
  53   0.0000       1.714102        46.6431 
  54   0.0000       1.789845        48.7042 
  55   0.0000       1.811836        49.3026 
  56   0.0000       1.844972        50.2043 
  57   0.0000       1.909656        51.9644 
  58   0.0000       1.919247        52.2254 
  59   0.0000       1.936845        52.7042 
  60   0.0000       2.109518        57.4029 
  61   0.0000       2.155088        58.6429 
  62   0.0000       2.205874        60.0249 
  63   0.0000       2.231519        60.7227 
  64   0.0000       2.234294        60.7982 
  65   0.0000       2.447988        66.6131 
  66   0.0000       2.448776        66.6346 
  67   0.0000       2.502800        68.1047 
  68   0.0000       2.525968        68.7351 
  69   0.0000       2.558995        69.6338 
  70   0.0000       2.589308        70.4587 
  71   0.0000       2.593685        70.5778 
  72   0.0000       2.675798        72.8122 
  73   0.0000       2.704252        73.5864 
  74   0.0000       2.730127        74.2905 
  75   0.0000       2.771397        75.4135 
  76   0.0000       2.874491        78.2189 
  77   0.0000       2.931727        79.7763 
  78   0.0000       2.990090        81.3645 
  79   0.0000       3.003134        81.7194 
  80   0.0000       3.085117        83.9503 
  81   0.0000       3.086546        83.9892 
  82   0.0000       3.139232        85.4228 
  83   0.0000       3.203597        87.1743 
  84   0.0000       3.286677        89.4350 
  85   0.0000       3.330556        90.6290 
  86   0.0000       3.347943        91.1021 
  87   0.0000       3.403577        92.6160 
  88   0.0000       3.554604        96.7257 
  89   0.0000       3.593272        97.7779 
  90   0.0000       3.646389        99.2233 
  91   0.0000       3.692204       100.4700 
  92   0.0000       3.844285       104.6083 
  93   0.0000       4.000909       108.8703 
  94   0.0000       4.011895       109.1692 
  95   0.0000       4.052059       110.2621 
  96   0.0000       4.286924       116.6531 
  97   0.0000       4.306610       117.1888 
  98   0.0000       4.309503       117.2675 
  99   0.0000       4.525196       123.1368 
 100   0.0000       4.691402       127.6596 
 101   0.0000       4.835113       131.5701 
 102   0.0000       5.297744       144.1590 
 103   0.0000       5.462132       148.6322 
 104   0.0000       5.706206       155.2737 
 105   0.0000       5.758466       156.6958 
 106   0.0000       5.770420       157.0211 
 107   0.0000       5.899227       160.5261 
 108   0.0000       6.044532       164.4801 
 109   0.0000       6.618059       180.0865 
 110   0.0000       6.628093       180.3596 
 111   0.0000       6.775559       184.3723 
 112   0.0000       6.954821       189.2503 
 113   0.0000       7.180864       195.4012 
 114   0.0000      22.288389       606.4979 
 115   0.0000      22.320174       607.3628 
 116   0.0000      43.861007      1193.5187 

                    ********************************
                    * MULLIKEN POPULATION ANALYSIS *
                    ********************************

-----------------------
MULLIKEN ATOMIC CHARGES
-----------------------
   0 O :   -0.302711
   1 C :   -0.081079
   2 C :   -0.081080
   3 H :    0.116217
   4 H :    0.116218
   5 H :    0.116218
   6 H :    0.116217
Sum of atomic charges:   -0.0000000

--------------------------------
MULLIKEN REDUCED ORBITAL CHARGES
--------------------------------
  0 O s       :     3.852458  s :     3.852458
      pz      :     1.835638  p :     4.404694
      px      :     1.291385
      py      :     1.277671
      dz2     :     0.005825  d :     0.043420
      dxz     :     0.002561
      dyz     :     0.006480
      dx2y2   :     0.012431
      dxy     :     0.016123
      f0      :     0.000254  f :     0.002139
      f+1     :     0.000216
      f-1     :     0.000459
      f+2     :     0.000069
      f-2     :     0.000200
      f+3     :     0.000346
      f-3     :     0.000596
  1 C s       :     3.232601  s :     3.232601
      pz      :     1.038686  p :     2.730251
      px      :     0.902891
      py      :     0.788674
      dz2     :     0.006054  d :     0.107023
      dxz     :     0.024289
      dyz     :     0.030385
      dx2y2   :     0.026870
      dxy     :     0.019425
      f0      :     0.001463  f :     0.011204
      f+1     :     0.001372
      f-1     :     0.000682
      f+2     :     0.000974
      f-2     :     0.001751
      f+3     :     0.002253
      f-3     :     0.002709
  2 C s       :     3.232602  s :     3.232602
      pz      :     1.038685  p :     2.730251
      px      :     0.902891
      py      :     0.788674
      dz2     :     0.006054  d :     0.107023
      dxz     :     0.024289
      dyz     :     0.030385
      dx2y2   :     0.026870
      dxy     :     0.019425
      f0      :     0.001463  f :     0.011204
      f+1     :     0.001372
      f-1     :     0.000682
      f+2     :     0.000974
      f-2     :     0.001751
      f+3     :     0.002253
      f-3     :     0.002709
  3 H s       :     0.862400  s :     0.862400
      pz      :     0.010771  p :     0.021382
      px      :     0.006354
      py      :     0.004257
  4 H s       :     0.862400  s :     0.862400
      pz      :     0.010771  p :     0.021382
      px      :     0.006354
      py      :     0.004257
  5 H s       :     0.862400  s :     0.862400
      pz      :     0.010771  p :     0.021382
      px      :     0.006354
      py      :     0.004257
  6 H s       :     0.862400  s :     0.862400
      pz      :     0.010771  p :     0.021382
      px      :     0.006354
      py      :     0.004257


                     *******************************
                     * LOEWDIN POPULATION ANALYSIS *
                     *******************************

----------------------
LOEWDIN ATOMIC CHARGES
----------------------
   0 O :    0.124148
   1 C :   -0.289730
   2 C :   -0.289730
   3 H :    0.113828
   4 H :    0.113828
   5 H :    0.113828
   6 H :    0.113828

-------------------------------
LOEWDIN REDUCED ORBITAL CHARGES
-------------------------------
  0 O s       :     3.383207  s :     3.383207
      pz      :     1.719633  p :     4.390169
      px      :     1.283781
      py      :     1.386755
      dz2     :     0.011637  d :     0.095789
      dxz     :     0.008221
      dyz     :     0.014248
      dx2y2   :     0.034093
      dxy     :     0.027590
      f0      :     0.000607  f :     0.006687
      f+1     :     0.000290
      f-1     :     0.000866
      f+2     :     0.000130
      f-2     :     0.000958
      f+3     :     0.001232
      f-3     :     0.002603
  1 C s       :     2.838075  s :     2.838075
      pz      :     1.061677  p :     2.931510
      px      :     1.017064
      py      :     0.852769
      dz2     :     0.052565  d :     0.452882
      dxz     :     0.117734
      dyz     :     0.089286
      dx2y2   :     0.100801
      dxy     :     0.092495
      f0      :     0.009270  f :     0.067263
      f+1     :     0.005440
      f-1     :     0.005496
      f+2     :     0.006229
      f-2     :     0.007586
      f+3     :     0.015115
      f-3     :     0.018125
  2 C s       :     2.838075  s :     2.838075
      pz      :     1.061677  p :     2.931510
      px      :     1.017064
      py      :     0.852769
      dz2     :     0.052565  d :     0.452882
      dxz     :     0.117734
      dyz     :     0.089286
      dx2y2   :     0.100801
      dxy     :     0.092495
      f0      :     0.009270  f :     0.067263
      f+1     :     0.005440
      f-1     :     0.005496
      f+2     :     0.006229
      f-2     :     0.007586
      f+3     :     0.015115
      f-3     :     0.018125
  3 H s       :     0.823724  s :     0.823724
      pz      :     0.032585  p :     0.062448
      px      :     0.017201
      py      :     0.012661
  4 H s       :     0.823724  s :     0.823724
      pz      :     0.032585  p :     0.062448
      px      :     0.017201
      py      :     0.012661
  5 H s       :     0.823724  s :     0.823724
      pz      :     0.032585  p :     0.062448
      px      :     0.017201
      py      :     0.012661
  6 H s       :     0.823724  s :     0.823724
      pz      :     0.032585  p :     0.062448
      px      :     0.017201
      py      :     0.012661


                      *****************************
                      * MAYER POPULATION ANALYSIS *
                      *****************************

  NA   - Mulliken gross atomic population
  ZA   - Total nuclear charge
  QA   - Mulliken gross atomic charge
  VA   - Mayer's total valence
  BVA  - Mayer's bonded valence
  FA   - Mayer's free valence

  ATOM       NA         ZA         QA         VA         BVA        FA
  0 O      8.3027     8.0000    -0.3027     2.0138     2.0138    -0.0000
  1 C      6.0811     6.0000    -0.0811     3.9584     3.9584    -0.0000
  2 C      6.0811     6.0000    -0.0811     3.9584     3.9584    -0.0000
  3 H      0.8838     1.0000     0.1162     0.9600     0.9600    -0.0000
  4 H      0.8838     1.0000     0.1162     0.9600     0.9600    -0.0000
  5 H      0.8838     1.0000     0.1162     0.9600     0.9600    -0.0000
  6 H      0.8838     1.0000     0.1162     0.9600     0.9600    -0.0000

  Mayer bond orders larger than 0.100000
B(  0-O ,  1-C ) :   0.9931 B(  0-O ,  2-C ) :   0.9931 B(  1-C ,  2-C ) :   1.0495 
B(  1-C ,  3-H ) :   0.9527 B(  1-C ,  4-H ) :   0.9527 B(  2-C ,  5-H ) :   0.9527 
B(  2-C ,  6-H ) :   0.9527 

-------
TIMINGS
-------

Total SCF time: 0 days 0 hours 0 min 2 sec 

Total time                  ....       2.598 sec
Sum of individual times     ....       2.328 sec  ( 89.6%)

Fock matrix formation       ....       2.032 sec  ( 78.2%)
  Split-RI-J                ....       0.244 sec  ( 12.0% of F)
  Chain of spheres X        ....       1.382 sec  ( 68.0% of F)
  XC integration            ....       0.385 sec  ( 18.9% of F)
    Basis function eval.    ....       0.101 sec  ( 26.3% of XC)
    Density eval.           ....       0.076 sec  ( 19.7% of XC)
    XC-Functional eval.     ....       0.022 sec  (  5.8% of XC)
    XC-Potential eval.      ....       0.136 sec  ( 35.5% of XC)
Diagonalization             ....       0.015 sec  (  0.6%)
Density matrix formation    ....       0.002 sec  (  0.1%)
Population analysis         ....       0.003 sec  (  0.1%)
Initial guess               ....       0.037 sec  (  1.4%)
Orbital Transformation      ....       0.000 sec  (  0.0%)
Orbital Orthonormalization  ....       0.000 sec  (  0.0%)
DIIS solution               ....       0.013 sec  (  0.5%)
SOSCF solution              ....       0.010 sec  (  0.4%)
Grid generation             ....       0.217 sec  (  8.3%)

Maximum memory used throughout the entire SCF-calculation: 61.1 MB


-------------------------------------------------------------------------------
                          DFT DISPERSION CORRECTION                            
                                                                               
                              DFTD3 V3.1  Rev 1                                
                          USING Becke-Johnson damping                          
-------------------------------------------------------------------------------
The PBE0 functional is recognized
Active option DFTDOPT                   ...         4   

molecular C6(AA) [au] = 350.882689 


            DFT-D V3
 parameters
 s6 scaling factor         :     1.0000 
 a1 scaling factor         :     0.4145 
 s8 scaling factor         :     1.2177 
 a2 scaling factor         :     4.8593 
 ad hoc parameters k1-k3   :    16.0000     1.3333    -4.0000 

 Edisp/kcal,au: -1.505991217198  -0.002399949513 
 E6   /kcal   :  -0.986988907 
 E8   /kcal   :  -0.519002310 
 % E8         :  34.462505775 

-------------------------   ----------------
Dispersion correction           -0.002399950
-------------------------   ----------------


-------------------------   --------------------
FINAL SINGLE POINT ENERGY      -153.672632476266
-------------------------   --------------------



           ************************************************************
           *        Program running with 8 parallel MPI-processes     *
           *              working on a common directory               *
           ************************************************************
------------------------------------------------------------------------------
                         ORCA SCF GRADIENT CALCULATION
------------------------------------------------------------------------------

 ... reading COSX grid (gridx3)
Gradient of the Kohn-Sham DFT energy:
Kohn-Sham wavefunction type      ... RKS
Hartree-Fock exchange scaling    ...    0.250
Number of operators              ...    1
Number of atoms                  ...    7
Basis set dimensions             ...  117
Integral neglect threshold       ... 2.5e-11
Integral primitive cutoff        ... 2.5e-12
SHARK Integral package           ... ON

Nuc. rep. gradient       (SHARK) ... done (  0.0 sec)
HCore & Overlap gradient (SHARK) ... done (  0.1 sec)
RI-J gradient            (SHARK) ... done (  0.8 sec)
COSX-gradient                    ... done (  0.4 sec)
Exchange-correlation gradient    ... done
Dispersion correction            ... done

------------------
CARTESIAN GRADIENT
------------------

   1   O   :   -0.000000048    0.015092198    0.000000072
   2   C   :   -0.042969395    0.004198731   -0.000000018
   3   C   :    0.042969382    0.004198739    0.000000009
   4   H   :   -0.000927045   -0.005936788    0.000962982
   5   H   :   -0.000927037   -0.005936811   -0.000962977
   6   H   :    0.000927037   -0.005936794   -0.000962977
   7   H   :    0.000927042   -0.005936820    0.000962973

Difference to translation invariance:
           :   -0.0000000649   -0.0002575452    0.0000000629

Difference to rotation invariance:
           :    0.0000001193   -0.0000000212    0.0000000307

Norm of the cartesian gradient     ...    0.0640616837
RMS gradient                       ...    0.0139794055
MAX gradient                       ...    0.0429693950

-------
TIMINGS
-------

Total SCF gradient time            ...        1.772 sec

One electron gradient       ....       0.050 sec  (  2.9%)
RI-J Coulomb gradient       ....       0.840 sec  ( 47.4%)
COSX gradient               ....       0.372 sec  ( 21.0%)
XC gradient                 ....       0.149 sec  (  8.4%)

Maximum memory used throughout the entire SCFGRAD-calculation: 35.9 MB
------------------------------------------------------------------------------
                         ORCA GEOMETRY RELAXATION STEP
------------------------------------------------------------------------------

Reading the OPT-File                    .... done
Getting information on internals        .... done
Copying old internal coords+grads       .... done
Making the new internal coordinates     .... (new redundants).... done
Validating the new internal coordinates .... (new redundants).... done
Calculating the B-matrix                .... done
Calculating the G,G- and P matrices     .... done
Transforming gradient to internals      .... done
Projecting the internal gradient        .... done
Number of atoms                         ....   7
Number of internal coordinates          ....  32
Current Energy                          ....  -153.672632476 Eh
Current gradient norm                   ....     0.064061684 Eh/bohr
Maximum allowed component of the step   ....  0.300
Current trust radius                    ....  0.300
Evaluating the initial hessian          ....  (Almloef) done
Projecting the Hessian                  .... done
Forming the augmented Hessian           .... done
Diagonalizing the augmented Hessian     .... done
Last element of RFO vector              ....  0.984464039
Lowest eigenvalues of augmented Hessian:
 -0.005281616  0.041543797  0.056883250  0.058374140  0.093218931
Length of the computed step             ....  0.178357275
The final length of the internal step   ....  0.178357275
Converting the step to cartesian space:
 Initial RMS(Int)=    0.0315294096
Transforming coordinates:
 Iter   0:  RMS(Cart)=    0.0243701089 RMS(Int)=    0.0316062664
 Iter   1:  RMS(Cart)=    0.0005607690 RMS(Int)=    0.0004445426
 Iter   2:  RMS(Cart)=    0.0000107471 RMS(Int)=    0.0000137592
 Iter   3:  RMS(Cart)=    0.0000006282 RMS(Int)=    0.0000004853
 Iter   4:  RMS(Cart)=    0.0000000119 RMS(Int)=    0.0000000143
done
Storing new coordinates                 .... done

                                .--------------------.
          ----------------------|Geometry convergence|-------------------------
          Item                value                   Tolerance       Converged
          ---------------------------------------------------------------------
          RMS gradient        0.0071630337            0.0000300000      NO
          MAX gradient        0.0326167198            0.0001000000      NO
          RMS step            0.0315294096            0.0006000000      NO
          MAX step            0.0830485607            0.0010000000      NO
          ........................................................
          Max(Bonds)      0.0439      Max(Angles)    1.41
          Max(Dihed)        3.89      Max(Improp)    0.00
          ---------------------------------------------------------------------

The optimization has not yet converged - more geometry cycles are needed


    ---------------------------------------------------------------------------
                         Redundant Internal Coordinates
                            (Angstroem and degrees)

        Definition                    Value    dE/dq     Step     New-Value
    ----------------------------------------------------------------------------
     1. B(C   1,O   0)                1.4290  0.012924 -0.0146    1.4144   
     2. B(C   2,C   1)                1.5300  0.032617 -0.0439    1.4861   
     3. B(C   2,O   0)                1.4290  0.012924 -0.0146    1.4144   
     4. B(H   3,C   1)                1.0900  0.002760 -0.0040    1.0860   
     5. B(H   4,C   1)                1.0900  0.002760 -0.0040    1.0860   
     6. B(H   5,C   2)                1.0900  0.002760 -0.0040    1.0860   
     7. B(H   6,C   2)                1.0900  0.002760 -0.0040    1.0860   
     8. A(C   1,O   0,C   2)           64.73  0.008233   -1.34     63.39   
     9. A(O   0,C   1,H   3)          117.77  0.002658   -1.41    116.36   
    10. A(H   3,C   1,H   4)          115.74 -0.001574    0.39    116.14   
    11. A(O   0,C   1,H   4)          117.77  0.002658   -1.41    116.36   
    12. A(C   2,C   1,H   3)          117.77 -0.000146    0.88    118.65   
    13. A(C   2,C   1,H   4)          117.77 -0.000146    0.88    118.65   
    14. A(O   0,C   1,C   2)           57.63 -0.004117    0.67     58.30   
    15. A(C   1,C   2,H   6)          117.77 -0.000146    0.88    118.65   
    16. A(O   0,C   2,C   1)           57.63 -0.004117    0.67     58.30   
    17. A(O   0,C   2,H   6)          117.77  0.002658   -1.41    116.36   
    18. A(C   1,C   2,H   5)          117.77 -0.000146    0.88    118.65   
    19. A(H   5,C   2,H   6)          115.74 -0.001574    0.39    116.14   
    20. A(O   0,C   2,H   5)          117.77  0.002658   -1.41    116.36   
    21. D(H   4,C   1,O   0,C   2)   -106.84  0.002992   -2.04   -108.88   
    22. D(H   3,C   1,O   0,C   2)    106.84 -0.002992    2.04    108.88   
    23. D(H   5,C   2,O   0,C   1)    106.84 -0.002992    2.04    108.88   
    24. D(O   0,C   2,C   1,H   3)   -106.84 -0.001887    1.94   -104.90   
    25. D(O   0,C   2,C   1,H   4)    106.84  0.001887   -1.94    104.90   
    26. D(H   5,C   2,C   1,O   0)   -106.84 -0.001887    1.94   -104.90   
    27. D(H   5,C   2,C   1,H   4)      0.00  0.000000   -0.00     -0.00   
    28. D(H   5,C   2,C   1,H   3)    146.32 -0.003773    3.89    150.21   
    29. D(H   6,C   2,C   1,O   0)    106.84  0.001887   -1.94    104.90   
    30. D(H   6,C   2,C   1,H   3)      0.00  0.000000   -0.00     -0.00   
    31. D(H   6,C   2,C   1,H   4)   -146.32  0.003773   -3.89   -150.21   
    32. D(H   6,C   2,O   0,C   1)   -106.84  0.002992   -2.04   -108.88   
    ----------------------------------------------------------------------------

         *************************************************************
         *                GEOMETRY OPTIMIZATION CYCLE   2            *
         *************************************************************
---------------------------------
CARTESIAN COORDINATES (ANGSTROEM)
---------------------------------
  O      0.000000    0.771479   -0.000000
  C     -0.743007   -0.432059   -0.000000
  C      0.743007   -0.432059   -0.000000
  H     -1.263454   -0.676890    0.921214
  H     -1.263454   -0.676890   -0.921214
  H      1.263454   -0.676890   -0.921214
  H      1.263454   -0.676890    0.921214

----------------------------
CARTESIAN COORDINATES (A.U.)
----------------------------
  NO LB      ZA    FRAG     MASS         X           Y           Z
   0 O     8.0000    0    15.999    0.000000    1.457883   -0.000000
   1 C     6.0000    0    12.011   -1.404080   -0.816474   -0.000000
   2 C     6.0000    0    12.011    1.404080   -0.816474   -0.000000
   3 H     1.0000    0     1.008   -2.387583   -1.279137    1.740842
   4 H     1.0000    0     1.008   -2.387583   -1.279136   -1.740842
   5 H     1.0000    0     1.008    2.387583   -1.279137   -1.740842
   6 H     1.0000    0     1.008    2.387583   -1.279136    1.740842

--------------------------------
INTERNAL COORDINATES (ANGSTROEM)
--------------------------------
 O      0   0   0     0.000000000000     0.00000000     0.00000000
 C      1   0   0     1.414412801444     0.00000000     0.00000000
 C      1   2   0     1.414412756356    63.37842513     0.00000000
 H      2   1   3     1.086021290701   116.33184057   108.83535286
 H      2   1   3     1.086021273965   116.33182532   251.16462802
 H      3   1   2     1.086021263126   116.33182720   108.83536957
 H      3   1   2     1.086021279299   116.33182945   251.16463785

---------------------------
INTERNAL COORDINATES (A.U.)
---------------------------
 O      0   0   0     0.000000000000     0.00000000     0.00000000
 C      1   0   0     2.672852835041     0.00000000     0.00000000
 C      1   2   0     2.672852749837    63.37842513     0.00000000
 H      2   1   3     2.052282815033   116.33184057   108.83535286
 H      2   1   3     2.052282783407   116.33182532   251.16462802
 H      3   1   2     2.052282762924   116.33182720   108.83536957
 H      3   1   2     2.052282793486   116.33182945   251.16463785



           ************************************************************
           *        Program running with 8 parallel MPI-processes     *
           *              working on a common directory               *
           ************************************************************
------------------------------------------------------------------------------
                   ___                                                        
                  /   \      - P O W E R E D   B Y -                         
                 /     \                                                     
                 |  |  |   _    _      __       _____    __    __             
                 |  |  |  | |  | |    /  \     |  _  \  |  |  /  |          
                  \  \/   | |  | |   /    \    | | | |  |  | /  /          
                 / \  \   | |__| |  /  /\  \   | |_| |  |  |/  /          
                |  |  |   |  __  | /  /__\  \  |    /   |      \           
                |  |  |   | |  | | |   __   |  |    \   |  |\   \          
                \     /   | |  | | |  |  |  |  | |\  \  |  | \   \       
                 \___/    |_|  |_| |__|  |__|  |_| \__\ |__|  \__/        
                                                                              
                      - O R C A' S   B I G   F R I E N D -                    
                                      &                                       
                       - I N T E G R A L  F E E D E R -                       
                                                                              
 v1 FN, 2020, v2 2021                                                         
------------------------------------------------------------------------------


Reading SHARK input file ox.SHARKINP.tmp ... ok
----------------------
SHARK INTEGRAL PACKAGE
----------------------

Number of atoms                             ...      7
Number of basis functions                   ...    117
Number of shells                            ...     49
Maximum angular momentum                    ...      3
Integral batch strategy                     ... SHARK/LIBINT Hybrid
RI-J (if used) integral strategy            ... SPLIT-RIJ (Revised 2003 algorithm where possible)
Printlevel                                  ...      1
Contraction scheme used                     ... SEGMENTED contraction
Coulomb Range Separation                    ... NOT USED
Exchange Range Separation                   ... NOT USED
Finite Nucleus Model                        ... NOT USED
Auxiliary Coulomb fitting basis             ... AVAILABLE
   # of basis functions in Aux-J            ...    191
   # of shells in Aux-J                     ...     65
   Maximum angular momentum in Aux-J        ...      4
Auxiliary J/K fitting basis                 ... NOT available
Auxiliary Correlation fitting basis         ... NOT available
Auxiliary 'external' fitting basis          ... NOT available
Integral threshold                          ...     2.500000e-11
Primitive cut-off                           ...     2.500000e-12
Primitive pair pre-selection threshold      ...     2.500000e-12

Calculating pre-screening integrals         ... done (  0.0 sec) Dimension = 49
Organizing shell pair data                  ... done (  0.0 sec)
Shell pair information
Total number of shell pairs                 ...      1225
Shell pairs after pre-screening             ...      1220
Total number of primitive shell pairs       ...      3648
Primitive shell pairs kept                  ...      3154
          la=0 lb=0:    373 shell pairs
          la=1 lb=0:    351 shell pairs
          la=1 lb=1:     91 shell pairs
          la=2 lb=0:    162 shell pairs
          la=2 lb=1:     78 shell pairs
          la=2 lb=2:     21 shell pairs
          la=3 lb=0:     81 shell pairs
          la=3 lb=1:     39 shell pairs
          la=3 lb=2:     18 shell pairs
          la=3 lb=3:      6 shell pairs

Calculating one electron integrals          ... done (  0.0 sec)
Calculating RI/J V-Matrix + Cholesky decomp.... done (  0.0 sec)
Calculating Nuclear repulsion               ... done (  0.0 sec) ENN=     75.424752839307 Eh

SHARK setup successfully completed in   0.1 seconds

Maximum memory used throughout the entire GTOINT-calculation: 14.9 MB


           ************************************************************
           *        Program running with 8 parallel MPI-processes     *
           *              working on a common directory               *
           ************************************************************

Diagonalization of the overlap matrix:
Smallest eigenvalue                        ... 4.329e-04
Time for diagonalization                   ...    0.001 sec
Threshold for overlap eigenvalues          ... 1.000e-08
Number of eigenvalues below threshold      ... 0
Time for construction of square roots      ...    0.001 sec
Total time needed                          ...    0.003 sec

-------------------
DFT GRID GENERATION
-------------------

General Integration Accuracy     IntAcc      ... 4.388
Radial Grid Type                 RadialGrid  ... OptM3 with GC (2021)
Angular Grid (max. ang.)         AngularGrid ... 4 (Lebedev-302)
Angular grid pruning method      GridPruning ... 4 (adaptive)
Weight generation scheme         WeightScheme... Becke
Basis function cutoff            BFCut       ... 1.0000e-11
Integration weight cutoff        WCut        ... 1.0000e-14
Angular grids for H and He will be reduced by one unit
Partially contracted basis set               ... off
Rotationally invariant grid construction     ... off

Total number of grid points                  ...    31296
Total number of batches                      ...      493
Average number of points per batch           ...       63
Average number of grid points per atom       ...     4471
Time for grid setup =    0.119 sec

--------------------
COSX GRID GENERATION
--------------------

GRIDX 1
-------
General Integration Accuracy     IntAcc      ... 3.816
Radial Grid Type                 RadialGrid  ... OptM3 with GC (2021)
Angular Grid (max. ang.)         AngularGrid ... 1 (Lebedev-50)
Angular grid pruning method      GridPruning ... 4 (adaptive)
Weight generation scheme         WeightScheme... Becke
Basis function cutoff            BFCut       ... 1.0000e-11
Integration weight cutoff        WCut        ... 1.0000e-14
Angular grids for H and He will be reduced by one unit
Partially contracted basis set               ... on
Rotationally invariant grid construction     ... off

Total number of grid points                  ...     4036
Total number of batches                      ...       68
Average number of points per batch           ...       59
Average number of grid points per atom       ...      577
UseSFitting                                  ... on

GRIDX 2
-------
General Integration Accuracy     IntAcc      ... 4.020
Radial Grid Type                 RadialGrid  ... OptM3 with GC (2021)
Angular Grid (max. ang.)         AngularGrid ... 2 (Lebedev-110)
Angular grid pruning method      GridPruning ... 4 (adaptive)
Weight generation scheme         WeightScheme... Becke
Basis function cutoff            BFCut       ... 1.0000e-11
Integration weight cutoff        WCut        ... 1.0000e-14
Angular grids for H and He will be reduced by one unit
Partially contracted basis set               ... on
Rotationally invariant grid construction     ... off

Total number of grid points                  ...     8717
Total number of batches                      ...      140
Average number of points per batch           ...       62
Average number of grid points per atom       ...     1245
UseSFitting                                  ... on

GRIDX 3
-------
General Integration Accuracy     IntAcc      ... 4.338
Radial Grid Type                 RadialGrid  ... OptM3 with GC (2021)
Angular Grid (max. ang.)         AngularGrid ... 3 (Lebedev-194)
Angular grid pruning method      GridPruning ... 4 (adaptive)
Weight generation scheme         WeightScheme... Becke
Basis function cutoff            BFCut       ... 1.0000e-11
Integration weight cutoff        WCut        ... 1.0000e-14
Angular grids for H and He will be reduced by one unit
Partially contracted basis set               ... on
Rotationally invariant grid construction     ... off

Total number of grid points                  ...    19257
Total number of batches                      ...      305
Average number of points per batch           ...       63
Average number of grid points per atom       ...     2751
UseSFitting                                  ... on

Time for X-Grid setup             =    0.072 sec

--------------
SCF ITERATIONS
--------------
ITER       Energy         Delta-E        Max-DP      RMS-DP      [F,P]     Damp
               ***  Starting incremental Fock matrix formation  ***
  0   -153.6731423213   0.000000000000 0.00192074  0.00009975  0.0108798 0.7000
                      *** Initiating the SOSCF procedure ***
                      *** Re-Reading the Fockian *** 
                      *** Removing any level shift *** 
ITER      Energy       Delta-E        Grad      Rot      Max-DP    RMS-DP
  1   -153.67337591  -0.0002335844  0.001151  0.001151  0.005123  0.000290
               *** Restarting incremental Fock matrix formation ***
  2   -153.67389617  -0.0005202621  0.001713  0.002355  0.002418  0.000133
  3   -153.67390410  -0.0000079352  0.001573  0.001060  0.001168  0.000051
  4   -153.67393790  -0.0000337971  0.000093  0.000173  0.000211  0.000007
  5   -153.67393775   0.0000001548  0.000192  0.000109  0.000132  0.000005
  6   -153.67393802  -0.0000002747  0.000008  0.000007  0.000011  0.000001
  7   -153.67393802  -0.0000000003  0.000003  0.000003  0.000003  0.000000
                 **** Energy Check signals convergence ****
              ***Rediagonalizing the Fockian in SOSCF/NRSCF***

               *****************************************************
               *                     SUCCESS                       *
               *           SCF CONVERGED AFTER   8 CYCLES          *
               *****************************************************

Old exchange energy                            =     -4.997871090 Eh
New exchange energy                            =     -4.997865160 Eh
Exchange energy change after final integration =      0.000005930 Eh
Total energy after final integration           =   -153.673932090 Eh
Final COS-X integration done in                =     0.252 sec
Total Energy       :         -153.67393209 Eh           -4181.68028 eV
  Last Energy change         ...   -2.7302e-10  Tolerance :   1.0000e-08
  Last MAX-Density change    ...    5.5511e-16  Tolerance :   1.0000e-07
             **** THE GBW FILE WAS UPDATED (ox.gbw) ****
             **** DENSITY ox.scfp WAS UPDATED ****
             **** ENERGY FILE WAS UPDATED (ox.en.tmp) ****
             **** THE GBW FILE WAS UPDATED (ox.gbw) ****
             **** DENSITY ox.scfp WAS UPDATED ****
Total SCF time: 0 days 0 hours 0 min 2 sec 

Maximum memory used throughout the entire SCF-calculation: 61.1 MB


-------------------------------------------------------------------------------
                          DFT DISPERSION CORRECTION                            
                                                                               
                              DFTD3 V3.1  Rev 1                                
                          USING Becke-Johnson damping                          
-------------------------------------------------------------------------------
-------------------------   ----------------
Dispersion correction           -0.002405549
-------------------------   ----------------


-------------------------   --------------------
FINAL SINGLE POINT ENERGY      -153.676337639336
-------------------------   --------------------



           ************************************************************
           *        Program running with 8 parallel MPI-processes     *
           *              working on a common directory               *
           ************************************************************
------------------------------------------------------------------------------
                         ORCA SCF GRADIENT CALCULATION
------------------------------------------------------------------------------

 ... reading COSX grid (gridx3)
Gradient of the Kohn-Sham DFT energy:
Kohn-Sham wavefunction type      ... RKS
Hartree-Fock exchange scaling    ...    0.250
Number of operators              ...    1
Number of atoms                  ...    7
Basis set dimensions             ...  117
Integral neglect threshold       ... 2.5e-11
Integral primitive cutoff        ... 2.5e-12
SHARK Integral package           ... ON

Nuc. rep. gradient       (SHARK) ... done (  0.0 sec)
HCore & Overlap gradient (SHARK) ... done (  0.0 sec)
RI-J gradient            (SHARK) ... done (  0.1 sec)
COSX-gradient                    ... done (  0.3 sec)
Exchange-correlation gradient    ... done
Dispersion correction            ... done

------------------
CARTESIAN GRADIENT
------------------

   1   O   :    0.000000043   -0.000404108    0.000000029
   2   C   :   -0.018734560    0.004006102    0.000000050
   3   C   :    0.018734541    0.004006146   -0.000000024
   4   H   :    0.000731078   -0.001960769   -0.000540529
   5   H   :    0.000731083   -0.001960761    0.000540526
   6   H   :   -0.000731099   -0.001960759    0.000540534
   7   H   :   -0.000731095   -0.001960757   -0.000540528

Difference to translation invariance:
           :   -0.0000000084   -0.0002349062    0.0000000577

Difference to rotation invariance:
           :    0.0000000280    0.0000000818   -0.0000000245

Norm of the cartesian gradient     ...    0.0274392623
RMS gradient                       ...    0.0059877379
MAX gradient                       ...    0.0187345602

-------
TIMINGS
-------

Total SCF gradient time            ...        0.687 sec

One electron gradient       ....       0.010 sec  (  1.4%)
RI-J Coulomb gradient       ....       0.078 sec  ( 11.3%)
COSX gradient               ....       0.303 sec  ( 44.1%)
XC gradient                 ....       0.153 sec  ( 22.3%)

Maximum memory used throughout the entire SCFGRAD-calculation: 35.9 MB
------------------------------------------------------------------------------
                         ORCA GEOMETRY RELAXATION STEP
------------------------------------------------------------------------------

Reading the OPT-File                    .... done
Getting information on internals        .... done
Copying old internal coords+grads       .... done
Making the new internal coordinates     .... (new redundants).... done
Validating the new internal coordinates .... (new redundants).... done
Calculating the B-matrix                .... done
Calculating the G,G- and P matrices     .... done
Transforming gradient to internals      .... done
Projecting the internal gradient        .... done
Number of atoms                         ....   7
Number of internal coordinates          ....  32
Current Energy                          ....  -153.676337639 Eh
Current gradient norm                   ....     0.027439262 Eh/bohr
Maximum allowed component of the step   ....  0.300
Current trust radius                    ....  0.300
Updating the Hessian (BFGS)             .... done
Forming the augmented Hessian           .... done
Diagonalizing the augmented Hessian     .... done
Last element of RFO vector              ....  0.992617911
Lowest eigenvalues of augmented Hessian:
 -0.001396375  0.041543797  0.049799116  0.056883250  0.093218931
Length of the computed step             ....  0.122185467
The final length of the internal step   ....  0.122185467
Converting the step to cartesian space:
 Initial RMS(Int)=    0.0215995430
Transforming coordinates:
 Iter   0:  RMS(Cart)=    0.0148005375 RMS(Int)=    0.0216206649
 Iter   1:  RMS(Cart)=    0.0002555684 RMS(Int)=    0.0002011467
 Iter   2:  RMS(Cart)=    0.0000037982 RMS(Int)=    0.0000045070
 Iter   3:  RMS(Cart)=    0.0000001434 RMS(Int)=    0.0000001102
 Iter   4:  RMS(Cart)=    0.0000000018 RMS(Int)=    0.0000000022
done
Storing new coordinates                 .... done

                                .--------------------.
          ----------------------|Geometry convergence|-------------------------
          Item                value                   Tolerance       Converged
          ---------------------------------------------------------------------
          Energy change      -0.0037051631            0.0000010000      NO
          RMS gradient        0.0027332711            0.0000300000      NO
          MAX gradient        0.0131642816            0.0001000000      NO
          RMS step            0.0215995430            0.0006000000      NO
          MAX step            0.0578757388            0.0010000000      NO
          ........................................................
          Max(Bonds)      0.0306      Max(Angles)    1.25
          Max(Dihed)        2.60      Max(Improp)    0.00
          ---------------------------------------------------------------------

The optimization has not yet converged - more geometry cycles are needed


    ---------------------------------------------------------------------------
                         Redundant Internal Coordinates
                            (Angstroem and degrees)

        Definition                    Value    dE/dq     Step     New-Value
    ----------------------------------------------------------------------------
     1. B(C   1,O   0)                1.4144  0.002000 -0.0041    1.4103   
     2. B(C   2,C   1)                1.4860  0.013164 -0.0306    1.4554   
     3. B(C   2,O   0)                1.4144  0.002000 -0.0041    1.4103   
     4. B(H   3,C   1)                1.0860 -0.000374  0.0008    1.0868   
     5. B(H   4,C   1)                1.0860 -0.000374  0.0008    1.0868   
     6. B(H   5,C   2)                1.0860 -0.000374  0.0008    1.0868   
     7. B(H   6,C   2)                1.0860 -0.000374  0.0008    1.0868   
     8. A(C   1,O   0,C   2)           63.38  0.004864   -1.25     62.13   
[...]
                      *** Removing any level shift *** 
ITER      Energy       Delta-E        Grad      Rot      Max-DP    RMS-DP
  0   -153.67463274 -153.6746327413  0.000019  0.000019  0.000023  0.000001
               *** Restarting incremental Fock matrix formation ***
  1   -153.67463275  -0.0000000090  0.000007  0.000012  0.000009  0.000000
  2   -153.67463275  -0.0000000002  0.000005  0.000007  0.000005  0.000000
                  ***Gradient check signals convergence***
              ***Rediagonalizing the Fockian in SOSCF/NRSCF***

               *****************************************************
               *                     SUCCESS                       *
               *           SCF CONVERGED AFTER   3 CYCLES          *
               *****************************************************

Old exchange energy                            =     -5.000695999 Eh
New exchange energy                            =     -5.000684692 Eh
Exchange energy change after final integration =      0.000011308 Eh
Total energy after final integration           =   -153.674621443 Eh
Final COS-X integration done in                =     0.258 sec

----------------
TOTAL SCF ENERGY
----------------

Total Energy       :         -153.67462144 Eh           -4181.69904 eV

Components:
Nuclear Repulsion  :           75.69914041 Eh            2059.87833 eV
Electronic Energy  :         -229.37376186 Eh           -6241.57738 eV
One Electron Energy:         -358.06946336 Eh           -9743.56545 eV
Two Electron Energy:          128.69570150 Eh            3501.98808 eV
Max COSX asymmetry :            0.00000395 Eh               0.00011 eV

Virial components:
Potential Energy   :         -306.68296615 Eh           -8345.26777 eV
Kinetic Energy     :          153.00834471 Eh            4163.56873 eV
Virial Ratio       :            2.00435451


DFT components:
N(Alpha)           :       12.000002815992 electrons
N(Beta)            :       12.000002815992 electrons
N(Total)           :       24.000005631984 electrons
E(X)               :      -14.969436151909 Eh       
E(C)               :       -0.791673535182 Eh       
E(XC)              :      -15.761109687091 Eh       
DFET-embed. en.    :        0.000000000000 Eh       

---------------
SCF CONVERGENCE
---------------

  Last Energy change         ...   -1.8693e-10  Tolerance :   1.0000e-08
  Last MAX-Density change    ...    5.5511e-16  Tolerance :   1.0000e-07
  Last RMS-Density change    ...    1.8229e-17  Tolerance :   5.0000e-09
  Last Orbital Gradient      ...    2.1183e-06  Tolerance :   1.0000e-05
  Last Orbital Rotation      ...    2.4060e-06  Tolerance :   1.0000e-05

             **** THE GBW FILE WAS UPDATED (ox.gbw) ****
             **** DENSITY ox.scfp WAS UPDATED ****
             **** ENERGY FILE WAS UPDATED (ox.en.tmp) ****
             **** THE GBW FILE WAS UPDATED (ox.gbw) ****
             **** DENSITY ox.scfp WAS UPDATED ****
----------------
ORBITAL ENERGIES
----------------

  NO   OCC          E(Eh)            E(eV) 
   0   2.0000     -19.222731      -523.0771 
   1   2.0000     -10.274108      -279.5727 
   2   2.0000     -10.273728      -279.5624 
   3   2.0000      -1.113505       -30.3000 
   4   2.0000      -0.699564       -19.0361 
   5   2.0000      -0.655657       -17.8413 
   6   2.0000      -0.533643       -14.5212 
   7   2.0000      -0.503098       -13.6900 
   8   2.0000      -0.416785       -11.3413 
   9   2.0000      -0.397467       -10.8156 
  10   2.0000      -0.331950        -9.0328 
  11   2.0000      -0.290934        -7.9167 
  12   0.0000       0.064881         1.7655 
  13   0.0000       0.082481         2.2444 
  14   0.0000       0.082783         2.2526 
  15   0.0000       0.099279         2.7015 
  16   0.0000       0.109406         2.9771 
  17   0.0000       0.154649         4.2082 
  18   0.0000       0.190672         5.1884 
  19   0.0000       0.214366         5.8332 
  20   0.0000       0.269933         7.3453 
  21   0.0000       0.274094         7.4585 
  22   0.0000       0.295143         8.0313 
  23   0.0000       0.339929         9.2499 
  24   0.0000       0.399471        10.8701 
  25   0.0000       0.400679        10.9030 
  26   0.0000       0.402014        10.9394 
  27   0.0000       0.439995        11.9729 
  28   0.0000       0.448371        12.2008 
  29   0.0000       0.462250        12.5785 
  30   0.0000       0.494743        13.4626 
  31   0.0000       0.520601        14.1663 
  32   0.0000       0.522713        14.2237 
  33   0.0000       0.701501        19.0888 
  34   0.0000       0.713745        19.4220 
  35   0.0000       0.724716        19.7205 
  36   0.0000       0.825919        22.4744 
  37   0.0000       0.869728        23.6665 
  38   0.0000       0.890834        24.2408 
  39   0.0000       0.940547        25.5936 
  40   0.0000       1.024013        27.8648 
  41   0.0000       1.034625        28.1536 
  42   0.0000       1.065308        28.9885 
  43   0.0000       1.087430        29.5905 
  44   0.0000       1.169221        31.8161 
  45   0.0000       1.359514        36.9942 
  46   0.0000       1.465654        39.8825 
  47   0.0000       1.497370        40.7455 
  48   0.0000       1.512879        41.1675 
  49   0.0000       1.516287        41.2603 
  50   0.0000       1.583868        43.0992 
  51   0.0000       1.629906        44.3520 
  52   0.0000       1.661181        45.2030 
  53   0.0000       1.696044        46.1517 
  54   0.0000       1.780126        48.4397 
  55   0.0000       1.811003        49.2799 
  56   0.0000       1.816657        49.4338 
  57   0.0000       1.912722        52.0478 
  58   0.0000       1.935496        52.6675 
  59   0.0000       1.971721        53.6533 
  60   0.0000       2.152983        58.5856 
  61   0.0000       2.163464        58.8708 
  62   0.0000       2.191274        59.6276 
  63   0.0000       2.252812        61.3021 
  64   0.0000       2.276410        61.9443 
  65   0.0000       2.419696        65.8433 
  66   0.0000       2.444392        66.5153 
  67   0.0000       2.506060        68.1934 
  68   0.0000       2.576574        70.1121 
  69   0.0000       2.579495        70.1916 
  70   0.0000       2.609392        71.0052 
  71   0.0000       2.684422        73.0468 
  72   0.0000       2.694968        73.3338 
  73   0.0000       2.697816        73.4113 
  74   0.0000       2.730187        74.2922 
  75   0.0000       2.822132        76.7941 
  76   0.0000       2.832673        77.0810 
  77   0.0000       2.956974        80.4634 
  78   0.0000       3.006119        81.8007 
  79   0.0000       3.018286        82.1317 
  80   0.0000       3.059073        83.2416 
  81   0.0000       3.111336        84.6638 
  82   0.0000       3.124554        85.0234 
  83   0.0000       3.258418        88.6661 
  84   0.0000       3.328587        90.5755 
  85   0.0000       3.350268        91.1654 
  86   0.0000       3.355087        91.2965 
  87   0.0000       3.418197        93.0139 
  88   0.0000       3.579710        97.4089 
  89   0.0000       3.628248        98.7296 
  90   0.0000       3.646818        99.2350 
  91   0.0000       3.715150       101.0944 
  92   0.0000       3.916282       106.5674 
  93   0.0000       4.060151       110.4823 
  94   0.0000       4.107003       111.7572 
  95   0.0000       4.122321       112.1741 
  96   0.0000       4.254866       115.7808 
  97   0.0000       4.318779       117.5200 
  98   0.0000       4.358606       118.6037 
  99   0.0000       4.598323       125.1267 
 100   0.0000       4.735699       128.8649 
 101   0.0000       4.824345       131.2771 
 102   0.0000       5.304608       144.3457 
 103   0.0000       5.467253       148.7715 
 104   0.0000       5.733140       156.0067 
 105   0.0000       5.762669       156.8102 
 106   0.0000       5.788335       157.5086 
 107   0.0000       5.933056       161.4467 
 108   0.0000       6.068834       165.1414 
 109   0.0000       6.609317       179.8487 
 110   0.0000       6.637274       180.6094 
 111   0.0000       6.798757       185.0036 
 112   0.0000       6.969127       189.6396 
 113   0.0000       7.177835       195.3188 
 114   0.0000      22.332523       607.6988 
 115   0.0000      22.465782       611.3250 
 116   0.0000      43.873711      1193.8644 

                    ********************************
                    * MULLIKEN POPULATION ANALYSIS *
                    ********************************

-----------------------
MULLIKEN ATOMIC CHARGES
-----------------------
   0 O :   -0.315477
   1 C :   -0.068106
   2 C :   -0.068107
   3 H :    0.112922
   4 H :    0.112923
   5 H :    0.112922
   6 H :    0.112923
Sum of atomic charges:   -0.0000000

--------------------------------
MULLIKEN REDUCED ORBITAL CHARGES
--------------------------------
  0 O s       :     3.853624  s :     3.853624
      pz      :     1.836598  p :     4.415265
      px      :     1.313164
      py      :     1.265502
      dz2     :     0.005919  d :     0.044299
      dxz     :     0.002753
      dyz     :     0.006915
      dx2y2   :     0.012796
      dxy     :     0.015916
      f0      :     0.000269  f :     0.002289
      f+1     :     0.000207
      f-1     :     0.000484
      f+2     :     0.000088
      f-2     :     0.000214
      f+3     :     0.000387
      f-3     :     0.000640
  1 C s       :     3.221618  s :     3.221618
      pz      :     1.040911  p :     2.722094
      px      :     0.903562
      py      :     0.777621
      dz2     :     0.005380  d :     0.112528
      dxz     :     0.026045
      dyz     :     0.031107
      dx2y2   :     0.029436
      dxy     :     0.020561
      f0      :     0.001590  f :     0.011866
      f+1     :     0.001391
      f-1     :     0.000623
      f+2     :     0.001314
      f-2     :     0.001725
      f+3     :     0.002161
      f-3     :     0.003062
  2 C s       :     3.221618  s :     3.221618
      pz      :     1.040911  p :     2.722095
      px      :     0.903563
      py      :     0.777621
      dz2     :     0.005380  d :     0.112528
      dxz     :     0.026045
      dyz     :     0.031107
      dx2y2   :     0.029436
      dxy     :     0.020561
      f0      :     0.001590  f :     0.011866
      f+1     :     0.001391
      f-1     :     0.000623
      f+2     :     0.001314
      f-2     :     0.001725
      f+3     :     0.002161
      f-3     :     0.003062
  3 H s       :     0.865820  s :     0.865820
      pz      :     0.010828  p :     0.021258
      px      :     0.006439
      py      :     0.003991
  4 H s       :     0.865820  s :     0.865820
      pz      :     0.010828  p :     0.021257
      px      :     0.006439
      py      :     0.003991
  5 H s       :     0.865821  s :     0.865821
      pz      :     0.010828  p :     0.021258
      px      :     0.006439
      py      :     0.003991
  6 H s       :     0.865820  s :     0.865820
      pz      :     0.010828  p :     0.021257
      px      :     0.006439
      py      :     0.003991


                     *******************************
                     * LOEWDIN POPULATION ANALYSIS *
                     *******************************

----------------------
LOEWDIN ATOMIC CHARGES
----------------------
   0 O :    0.136857
   1 C :   -0.301815
   2 C :   -0.301815
   3 H :    0.116693
   4 H :    0.116693
   5 H :    0.116693
   6 H :    0.116693

-------------------------------
LOEWDIN REDUCED ORBITAL CHARGES
-------------------------------
  0 O s       :     3.372001  s :     3.372001
      pz      :     1.715242  p :     4.387035
      px      :     1.297383
      py      :     1.374410
      dz2     :     0.011832  d :     0.097002
      dxz     :     0.008411
      dyz     :     0.015684
      dx2y2   :     0.034721
      dxy     :     0.026353
      f0      :     0.000680  f :     0.007105
      f+1     :     0.000265
      f-1     :     0.000939
      f+2     :     0.000173
      f-2     :     0.001009
      f+3     :     0.001253
      f-3     :     0.002787
  1 C s       :     2.819502  s :     2.819502
      pz      :     1.049292  p :     2.920557
      px      :     1.033588
      py      :     0.837677
      dz2     :     0.053939  d :     0.486175
      dxz     :     0.134826
      dyz     :     0.087768
      dx2y2   :     0.108921
      dxy     :     0.100720
      f0      :     0.010417  f :     0.075582
      f+1     :     0.005983
      f-1     :     0.005837
      f+2     :     0.008472
      f-2     :     0.007452
      f+3     :     0.015495
      f-3     :     0.021927
  2 C s       :     2.819502  s :     2.819502
      pz      :     1.049292  p :     2.920557
      px      :     1.033588
      py      :     0.837677
      dz2     :     0.053939  d :     0.486175
      dxz     :     0.134826
      dyz     :     0.087768
      dx2y2   :     0.108921
      dxy     :     0.100720
      f0      :     0.010417  f :     0.075582
      f+1     :     0.005983
      f-1     :     0.005837
      f+2     :     0.008472
      f-2     :     0.007452
      f+3     :     0.015495
      f-3     :     0.021927
  3 H s       :     0.821862  s :     0.821862
      pz      :     0.032347  p :     0.061445
      px      :     0.017251
      py      :     0.011847
  4 H s       :     0.821862  s :     0.821862
      pz      :     0.032347  p :     0.061445
      px      :     0.017251
      py      :     0.011847
  5 H s       :     0.821862  s :     0.821862
      pz      :     0.032347  p :     0.061445
      px      :     0.017251
      py      :     0.011847
  6 H s       :     0.821862  s :     0.821862
      pz      :     0.032347  p :     0.061445
      px      :     0.017251
      py      :     0.011847


                      *****************************
                      * MAYER POPULATION ANALYSIS *
                      *****************************

  NA   - Mulliken gross atomic population
  ZA   - Total nuclear charge
  QA   - Mulliken gross atomic charge
  VA   - Mayer's total valence
  BVA  - Mayer's bonded valence
  FA   - Mayer's free valence

  ATOM       NA         ZA         QA         VA         BVA        FA
  0 O      8.3155     8.0000    -0.3155     1.9989     1.9989    -0.0000
  1 C      6.0681     6.0000    -0.0681     3.9785     3.9785     0.0000
  2 C      6.0681     6.0000    -0.0681     3.9785     3.9785     0.0000
  3 H      0.8871     1.0000     0.1129     0.9611     0.9611    -0.0000
  4 H      0.8871     1.0000     0.1129     0.9611     0.9611     0.0000
  5 H      0.8871     1.0000     0.1129     0.9611     0.9611     0.0000
  6 H      0.8871     1.0000     0.1129     0.9611     0.9611     0.0000

  Mayer bond orders larger than 0.100000
B(  0-O ,  1-C ) :   0.9893 B(  0-O ,  2-C ) :   0.9893 B(  1-C ,  2-C ) :   1.0679 
B(  1-C ,  3-H ) :   0.9536 B(  1-C ,  4-H ) :   0.9536 B(  2-C ,  5-H ) :   0.9536 
B(  2-C ,  6-H ) :   0.9536 

-------
TIMINGS
-------

Total SCF time: 0 days 0 hours 0 min 1 sec 

Total time                  ....       1.402 sec
Sum of individual times     ....       1.232 sec  ( 87.9%)

Fock matrix formation       ....       1.017 sec  ( 72.5%)
  Split-RI-J                ....       0.137 sec  ( 13.5% of F)
  Chain of spheres X        ....       0.748 sec  ( 73.6% of F)
  XC integration            ....       0.126 sec  ( 12.4% of F)
    Basis function eval.    ....       0.036 sec  ( 28.1% of XC)
    Density eval.           ....       0.027 sec  ( 21.0% of XC)
    XC-Functional eval.     ....       0.008 sec  (  6.0% of XC)
    XC-Potential eval.      ....       0.041 sec  ( 32.1% of XC)
Diagonalization             ....       0.002 sec  (  0.2%)
Density matrix formation    ....       0.001 sec  (  0.0%)
Population analysis         ....       0.004 sec  (  0.3%)
Initial guess               ....       0.009 sec  (  0.6%)
Orbital Transformation      ....       0.000 sec  (  0.0%)
Orbital Orthonormalization  ....       0.001 sec  (  0.1%)
DIIS solution               ....       0.001 sec  (  0.1%)
SOSCF solution              ....       0.007 sec  (  0.5%)
Grid generation             ....       0.192 sec  ( 13.7%)

Maximum memory used throughout the entire SCF-calculation: 61.1 MB


-------------------------------------------------------------------------------
                          DFT DISPERSION CORRECTION                            
                                                                               
                              DFTD3 V3.1  Rev 1                                
                          USING Becke-Johnson damping                          
-------------------------------------------------------------------------------
The PBE0 functional is recognized
Active option DFTDOPT                   ...         4   

molecular C6(AA) [au] = 350.764300 


            DFT-D V3
 parameters
 s6 scaling factor         :     1.0000 
 a1 scaling factor         :     0.4145 
 s8 scaling factor         :     1.2177 
 a2 scaling factor         :     4.8593 
 ad hoc parameters k1-k3   :    16.0000     1.3333    -4.0000 

 Edisp/kcal,au: -1.510446750849  -0.002407049857 
 E6   /kcal   :  -0.990460601 
 E8   /kcal   :  -0.519986150 
 % E8         :  34.425983574 

-------------------------   ----------------
Dispersion correction           -0.002407050
-------------------------   ----------------


-------------------------   --------------------
FINAL SINGLE POINT ENERGY      -153.677028492747
-------------------------   --------------------

                                *** OPTIMIZATION RUN DONE ***

                            ***************************************
                            *     ORCA property calculations      *
                            ***************************************

                                    ---------------------
                                    Active property flags
                                    ---------------------
   (+) Dipole Moment


------------------------------------------------------------------------------
                       ORCA ELECTRIC PROPERTIES CALCULATION
------------------------------------------------------------------------------

Dipole Moment Calculation                       ... on
Quadrupole Moment Calculation                   ... off
Polarizability Calculation                      ... off
GBWName                                         ... ox.gbw
Electron density                                ... ox.scfp
The origin for moment calculation is the CENTER OF MASS  = ( 0.000000, -0.049879  0.000000)

-------------
DIPOLE MOMENT
-------------
                                X             Y             Z
Electronic contribution:     -0.00000       1.66939       0.00000
Nuclear contribution   :     -0.00000      -2.39704      -0.00000
                        -----------------------------------------
Total Dipole Moment    :     -0.00000      -0.72765      -0.00000
                        -----------------------------------------
Magnitude (a.u.)       :      0.72765
Magnitude (Debye)      :      1.84953



--------------------
Rotational spectrum 
--------------------
 
Rotational constants in cm-1:     0.869270     0.745418     0.479143 
Rotational constants in MHz : 26060.051048 22347.071393 14364.355612 

 Dipole components along the rotational axes: 
x,y,z [a.u.] :    -0.000000    -0.727647     0.000000 
x,y,z [Debye]:    -0.000001    -1.849532     0.000000 

 

Timings for individual modules:

Sum of individual times         ...       24.464 sec (=   0.408 min)
GTO integral calculation        ...        2.323 sec (=   0.039 min)   9.5 %
SCF iterations                  ...       15.049 sec (=   0.251 min)  61.5 %
SCF Gradient evaluation         ...        6.856 sec (=   0.114 min)  28.0 %
Geometry relaxation             ...        0.236 sec (=   0.004 min)   1.0 %
                             ****ORCA TERMINATED NORMALLY****
TOTAL RUN TIME: 0 days 0 hours 0 minutes 26 seconds 586 msec
