7
Properties=species:S:1:pos:R:3 C2H4O=T energy=-4181.764945393823 dipole="-0.0 -0.385055797266779 -0.0" pbc="F F F"
O        0.01985221       0.80424621      -0.03120752
C       -0.74966504      -0.49679395      -0.04515430
C        0.71979238      -0.38351789       0.02969649
H       -1.25085137      -0.69917802       0.97116777
H       -1.22703064      -0.69992824      -0.87539250
H        1.27605344      -0.70157590      -0.95786825
H        1.31096149      -0.65695757       0.89562242
7
Properties=species:S:1:pos:R:3 C2H4O=T energy=-4181.764945393823 dipole="-0.0 -0.385055797266779 -0.0" pbc="F F F"
O        0.05230615       0.79155504      -0.07921783
C       -0.69139858      -0.45774997       0.00787303
C        0.76164247      -0.47436498       0.07437742
H       -1.30659446      -0.70976564       0.94395036
H       -1.31820974      -0.62928572      -0.86095884
H        1.24454688      -0.75588216      -0.85162839
H        1.25815869      -0.73644587       0.99218531
7
Properties=species:S:1:pos:R:3 C2H4O=T energy=-4181.764945393823 dipole="-0.0 -0.385055797266779 -0.0" pbc="F F F"
O        0.06708495       0.71421039      -0.07304276
C       -0.70608231      -0.44538500      -0.00950609
C        0.74448460      -0.48485835       0.01016887
H       -1.34806359      -0.65241966       0.96569215
H       -1.25752121      -0.73958570      -0.87802821
H        1.24498083      -0.64893665      -0.88787458
H        1.22659033      -0.57401555       0.90512514
7
Properties=species:S:1:pos:R:3 C2H4O=T energy=-4181.764945393823 dipole="-0.0 -0.385055797266779 -0.0" pbc="F F F"
O       -0.04343816       0.65987733      -0.02754145
C       -0.76718719      -0.48613196       0.03193115
C        0.72895566      -0.45643023      -0.08107096
H       -1.27951404      -0.72625166       0.88623974
H       -1.27030611      -0.64534030      -0.91917539
H        1.24248283      -0.66620984      -0.90729550
H        1.17941858      -0.70616580       0.96770702
7
Properties=species:S:1:pos:R:3 C2H4O=T energy=-4181.764945393823 dipole="-0.0 -0.385055797266779 -0.0" pbc="F F F"
O       -0.04352820       0.74921546       0.07097050
C       -0.69614075      -0.44353495       0.02761496
C        0.68373715      -0.43959086      -0.08990097
H       -1.30757366      -0.68804052       0.90251680
H       -1.30295183      -0.74405463      -0.95449862
H        1.23230754      -0.67649378      -0.92697295
H        1.25105296      -0.67402720       0.89086294
7
Properties=species:S:1:pos:R:3 C2H4O=T energy=-4181.764945393823 dipole="-0.0 -0.385055797266779 -0.0" pbc="F F F"
O        0.13032606       0.77598215       0.04481487
C       -0.69730795      -0.47185780       0.00586368
C        0.64328704      -0.45429103      -0.04837138
H       -1.17019381      -0.64392605       0.87270452
H       -1.31494362      -0.69650636      -0.86613776
H        1.27168642      -0.56434428      -0.98752243
H        1.31714756      -0.69096019       0.87537890
7
Properties=species:S:1:pos:R:3 C2H4O=T energy=-4181.764945393823 dipole="-0.0 -0.385055797266779 -0.0" pbc="F F F"
O        0.01720077       0.75200878      -0.07803757
C       -0.78125125      -0.41817539      -0.02742526
C        0.68368014      -0.33631991       0.00724615
H       -1.33863016      -0.65598179       0.95266686
H       -1.32033922      -0.68626276      -0.94980840
H        1.20375044      -0.78665380      -1.04947079
H        1.25556070      -0.66592878       0.98976755
7
Properties=species:S:1:pos:R:3 C2H4O=T energy=-4181.764945393823 dipole="-0.0 -0.385055797266779 -0.0" pbc="F F F"
O        0.00270426       0.85316033      -0.02930422
C       -0.74732556      -0.54789347      -0.00281592
C        0.79772103      -0.45946670      -0.07957839
H       -1.35360377      -0.72939742       0.91785106
H       -1.21446577      -0.72070860      -0.88109827
H        1.31205543      -0.65069880      -0.99479680
H        1.26307742      -0.71010753       0.89117403
7
Properties=species:S:1:pos:R:3 C2H4O=T energy=-4181.764945393823 dipole="-0.0 -0.385055797266779 -0.0" pbc="F F F"
O        0.10034728       0.85115283      -0.02710650
C       -0.70701184      -0.41301617      -0.05302299
C        0.72879989      -0.43209162       0.01334954
H       -1.27260545      -0.60522894       0.96632334
H       -1.18335714      -0.71066911      -0.90916227
H        1.33142441      -0.67186111      -0.90909979
H        1.24195302      -0.69635309       0.94205775
7
Properties=species:S:1:pos:R:3 C2H4O=T energy=-4181.764945393823 dipole="-0.0 -0.385055797266779 -0.0" pbc="F F F"
O       -0.04664036       0.70153296       0.02208104
C       -0.72924879      -0.51709879       0.00365307
C        0.78884821      -0.36752428       0.00577537
H       -1.26698526      -0.61893121       0.85048304
H       -1.22206231      -0.67121390      -0.99834013
H        1.28818518      -0.70764797      -0.87015466
H        1.14698601      -0.70484751       0.94655814
7
Properties=species:S:1:pos:R:3 C2H4O=T energy=-4181.764945393823 dipole="-0.0 -0.385055797266779 -0.0" pbc="F F F"
O       -0.06200404       0.68582712       0.08340994
C       -0.67469076      -0.50047268      -0.02182767
C        0.73570820      -0.48609527      -0.05012693
H       -1.35041287      -0.64948428       0.99016021
H       -1.24605068      -0.60692490      -0.97303007
H        1.23607238      -0.55757454      -0.94629816
H        1.17793338      -0.61876676       0.90223487
7
Properties=species:S:1:pos:R:3 C2H4O=T energy=-4181.764945393823 dipole="-0.0 -0.385055797266779 -0.0" pbc="F F F"
O       -0.00629387       0.75404358       0.08404757
C       -0.74998718      -0.39409663       0.08567925
C        0.75523235      -0.37496715       0.02751029
H       -1.21445846      -0.64138125       0.84113620
H       -1.25880777      -0.58245608      -0.91540969
H        1.33966186      -0.62730724      -0.91129909
H        1.23765963      -0.68026702       0.94289560
7
Properties=species:S:1:pos:R:3 C2H4O=T energy=-4181.764945393823 dipole="-0.0 -0.385055797266779 -0.0" pbc="F F F"
O        0.00039144       0.83163444       0.07283581
C       -0.80117884      -0.37530488      -0.00837067
C        0.73893302      -0.40907383       0.11453298
H       -1.26151087      -0.65296360       0.85760274
H       -1.28960320      -0.63671522      -0.92685316
H        1.20759564      -0.61365959      -0.97718301
H        1.30823066      -0.73181390       0.92539250
7
Properties=species:S:1:pos:R:3 C2H4O=T energy=-4181.764945393823 dipole="-0.0 -0.385055797266779 -0.0" pbc="F F F"
O        0.01295633       0.77685399       0.00325320
C       -0.73308913      -0.46727296      -0.00209122
C        0.75532548      -0.46284202       0.03705949
H       -1.23808260      -0.70789320       0.93583305
H       -1.24535791      -0.70866898      -0.96722052
H        1.33475241      -0.59428445      -0.95051291
H        1.22945145      -0.63298753       0.81491496
7
Properties=species:S:1:pos:R:3 C2H4O=T energy=-4181.764945393823 dipole="-0.0 -0.385055797266779 -0.0" pbc="F F F"
O       -0.04366987       0.74591827       0.02953782
C       -0.71336206      -0.41484343      -0.00926754
C        0.71586711      -0.32891955       0.01590365
H       -1.28827825      -0.56883457       0.86926607
H       -1.24049939      -0.63417766      -0.96409328
H        1.27429447      -0.60121424      -0.93096542
H        1.36357777      -0.68001088       0.95978518
7
Properties=species:S:1:pos:R:3 C2H4O=T energy=-4181.764945393823 dipole="-0.0 -0.385055797266779 -0.0" pbc="F F F"
O        0.07145276       0.80786211       0.02714670
C       -0.73823357      -0.47602887      -0.03197765
C        0.68615351      -0.49799064      -0.03672993
H       -1.22835424      -0.74551424       0.96107063
H       -1.32896172      -0.69076597      -0.95440498
H        1.26143161      -0.72079673      -0.91784074
H        1.26616435      -0.70029124       0.84649131
7
Properties=species:S:1:pos:R:3 C2H4O=T energy=-4181.764945393823 dipole="-0.0 -0.385055797266779 -0.0" pbc="F F F"
O        0.03337142       0.80543359       0.00154501
C       -0.71847178      -0.42979187      -0.08574157
C        0.69812893      -0.38822583       0.04190524
H       -1.31298152      -0.60099931       0.94898462
H       -1.21371600      -0.70954005      -0.87496246
H        1.33980711      -0.61284442      -0.86096044
H        1.25503535      -0.63341637       0.98168593
7
Properties=species:S:1:pos:R:3 C2H4O=T energy=-4181.764945393823 dipole="-0.0 -0.385055797266779 -0.0" pbc="F F F"
O       -0.08723529       0.70378757      -0.04062003
C       -0.67759195      -0.38006710       0.03434569
C        0.65881819      -0.41519457      -0.08403490
H       -1.34439435      -0.59098914       0.97318965
H       -1.25093859      -0.66137252      -0.96590921
H        1.30461138      -0.62738207      -0.77651282
H        1.32580779      -0.71147348       0.81953985
7
Properties=species:S:1:pos:R:3 C2H4O=T energy=-4181.764945393823 dipole="-0.0 -0.385055797266779 -0.0" pbc="F F F"
O       -0.06825614       0.67195471       0.04528671
C       -0.68772441      -0.42116370      -0.06007323
C        0.73932362      -0.40188418       0.07202641
H       -1.23574022      -0.70445555       0.91591314
H       -1.24331284      -0.63115374      -0.89896389
H        1.25865254      -0.73352623      -0.88469070
H        1.19102987      -0.70485391       1.00341248
7
Properties=species:S:1:pos:R:3 C2H4O=T energy=-4181.764945393823 dipole="-0.0 -0.385055797266779 -0.0" pbc="F F F"
O       -0.05655783       0.75470139       0.00134574
C       -0.78466200      -0.48421040      -0.04032908
C        0.77051115      -0.46928204      -0.01171400
H       -1.26276573      -0.71380963       0.86693260
H       -1.35211815      -0.66912967      -0.81228566
H        1.29474257      -0.57735302      -0.86032960
H        1.26319992      -0.66588122       1.00131672
7
Properties=species:S:1:pos:R:3 C2H4O=T energy=-4181.764945393823 dipole="-0.0 -0.385055797266779 -0.0" pbc="F F F"
O       -0.01922651       0.72627300      -0.00875611
C       -0.73279987      -0.44369690      -0.02041185
C        0.71342953      -0.41568505       0.04743177
H       -1.19970407      -0.68451828       0.88283320
H       -1.27185644      -0.67463144      -0.89256382
H        1.27070104      -0.65760816      -0.93154970
H        1.23214248      -0.66226034       0.90166448
7
Properties=species:S:1:pos:R:3 C2H4O=T energy=-4181.764945393823 dipole="-0.0 -0.385055797266779 -0.0" pbc="F F F"
O       -0.00811377       0.74565226       0.02371440
C       -0.74992541      -0.39223728       0.03423796
C        0.85013150      -0.40288141       0.02083725
H       -1.20803304      -0.74041462       0.93384756
H       -1.24232661      -0.72966406      -0.90912496
H        1.20648923      -0.70502098      -0.83544941
H        1.32658714      -0.65531057       0.94930062
7
Properties=species:S:1:pos:R:3 C2H4O=T energy=-4181.764945393823 dipole="-0.0 -0.385055797266779 -0.0" pbc="F F F"
O        0.04452386       0.78086902      -0.09068851
C       -0.69165528      -0.43032772      -0.00183083
C        0.66742777      -0.36529421      -0.02912784
H       -1.19683136      -0.59928646       0.88508659
H       -1.16306364      -0.71384138      -0.85946581
H        1.26834386      -0.74570663      -0.96929782
H        1.23699617      -0.63366192       1.03137929
7
Properties=species:S:1:pos:R:3 C2H4O=T energy=-4181.764945393823 dipole="-0.0 -0.385055797266779 -0.0" pbc="F F F"
O        0.01591114       0.74981929      -0.08129002
C       -0.80101581      -0.40100308      -0.02098052
C        0.73875369      -0.40925860      -0.01085303
H       -1.28661514      -0.76018501       0.95663507
H       -1.18596199      -0.72342026      -0.89017915
H        1.31972377      -0.64504370      -0.97440806
H        1.22499292      -0.71577232       0.90619136
7
Properties=species:S:1:pos:R:3 C2H4O=T energy=-4181.764945393823 dipole="-0.0 -0.385055797266779 -0.0" pbc="F F F"
O        0.02776088       0.77844948      -0.03543813
C       -0.63653530      -0.44460910       0.02378593
C        0.68332741      -0.48321308       0.00806571
H       -1.16686165      -0.66595817       0.93118121
H       -1.23157162      -0.64996395      -0.89378808
H        1.24588528      -0.65439127      -0.92704131
H        1.30759338      -0.67823336       0.85638657
7
Properties=species:S:1:pos:R:3 C2H4O=T energy=-4181.764945393823 dipole="-0.0 -0.385055797266779 -0.0" pbc="F F F"
O        0.04841330       0.74974231       0.01066684
C       -0.74012370      -0.39747457       0.00018881
C        0.71516538      -0.41420675      -0.01080055
H       -1.16138731      -0.71944503       0.94401908
H       -1.24857068      -0.67182532      -0.94057262
H        1.27153513      -0.62541393      -0.86824161
H        1.27159447      -0.62448990       0.93481522
7
Properties=species:S:1:pos:R:3 C2H4O=T energy=-4181.764945393823 dipole="-0.0 -0.385055797266779 -0.0" pbc="F F F"
O        0.03833805       0.79190211       0.04706028
C       -0.66635851      -0.35662870       0.05273877
C        0.73055264      -0.55346385       0.02664839
H       -1.25705056      -0.64880868       0.85316032
H       -1.20780892      -0.70417392      -0.94420092
H        1.27645139      -0.65423983      -0.85838899
H        1.25776222      -0.73141286       0.95265231
7
Properties=species:S:1:pos:R:3 C2H4O=T energy=-4181.764945393823 dipole="-0.0 -0.385055797266779 -0.0" pbc="F F F"
O        0.00311889       0.82156007       0.08029271
C       -0.77802309      -0.35169830      -0.03620177
C        0.64962416      -0.38698190       0.02115220
H       -1.17977482      -0.68487283       0.90517189
H       -1.26351543      -0.64131344      -0.88359711
H        1.24554866      -0.65141679      -0.93427096
H        1.21298346      -0.64535695       0.98465793
7
Properties=species:S:1:pos:R:3 C2H4O=T energy=-4181.764945393823 dipole="-0.0 -0.385055797266779 -0.0" pbc="F F F"
O        0.08949800       0.79268170       0.06336406
C       -0.74029459      -0.45895817       0.02863639
C        0.80661323      -0.37984048      -0.02444186
H       -1.25810048      -0.65693511       0.99655246
H       -1.17355241      -0.66611001      -0.98155288
H        1.24343427      -0.57614294      -0.89217939
H        1.33516597      -0.68536366       0.98185959
7
Properties=species:S:1:pos:R:3 C2H4O=T energy=-4181.764945393823 dipole="-0.0 -0.385055797266779 -0.0" pbc="F F F"
O        0.07364483       0.75833432       0.06837567
C       -0.74152472      -0.48570688       0.03647588
C        0.69563027      -0.47086690       0.04407464
H       -1.32248585      -0.72576849       0.88569976
H       -1.18034252      -0.71078012      -1.03501544
H        1.27554853      -0.61936203      -0.81940489
H        1.24270449      -0.55152578       0.95776651
7
Properties=species:S:1:pos:R:3 C2H4O=T energy=-4181.764945393823 dipole="-0.0 -0.385055797266779 -0.0" pbc="F F F"
O        0.00541285       0.80971386       0.03957839
C       -0.70070886      -0.45198879       0.04052149
C        0.70194255      -0.49487445      -0.01264121
H       -1.25784152      -0.63859886       0.97013917
H       -1.21116318      -0.64619406      -0.95509356
H        1.25479688      -0.67096945      -0.92825653
H        1.28976165      -0.62625603       0.94233296
7
Properties=species:S:1:pos:R:3 C2H4O=T energy=-4181.764945393823 dipole="-0.0 -0.385055797266779 -0.0" pbc="F F F"
O        0.02474703       0.70104363       0.06409673
C       -0.73773974      -0.38235921      -0.01833706
C        0.77861858      -0.42324481      -0.00705581
H       -1.30039524      -0.60432769       0.88665905
H       -1.24362464      -0.64673970      -0.90438370
H        1.33919293      -0.59963767      -0.94335642
H        1.34855187      -0.63976294       0.90428758
7
Properties=species:S:1:pos:R:3 C2H4O=T energy=-4181.764945393823 dipole="-0.0 -0.385055797266779 -0.0" pbc="F F F"
O       -0.02656737       0.82615840      -0.06403334
C       -0.75316528      -0.44566830      -0.00439262
C        0.78377347      -0.47563809       0.00926452
H       -1.18499042      -0.65177184       0.82438975
H       -1.24673053      -0.69224718      -0.97726057
H        1.26299076      -0.81421097      -0.87084107
H        1.22698593      -0.64230374       0.96611298
7
Properties=species:S:1:pos:R:3 C2H4O=T energy=-4181.764945393823 dipole="-0.0 -0.385055797266779 -0.0" pbc="F F F"
O       -0.05928925       0.69024179       0.05835542
C       -0.65134696      -0.48592934      -0.07932968
C        0.76730874      -0.55284499      -0.09578128
H       -1.20043332      -0.64638450       0.86585080
H       -1.29800320      -0.73307428      -0.99917214
H        1.25068957      -0.70983215      -0.95113389
H        1.33952280      -0.62799303       0.85963624
7
Properties=species:S:1:pos:R:3 C2H4O=T energy=-4181.764945393823 dipole="-0.0 -0.385055797266779 -0.0" pbc="F F F"
O       -0.02415337       0.75364985      -0.01892009
C       -0.70602282      -0.44671418       0.01226012
C        0.71972614      -0.44562941       0.01613005
H       -1.25298265      -0.55858117       0.92315024
H       -1.34131415      -0.66997192      -1.01047989
H        1.18974847      -0.68526611      -0.88807242
H        1.13413429      -0.65482397       1.01770797
7
Properties=species:S:1:pos:R:3 C2H4O=T energy=-4181.764945393823 dipole="-0.0 -0.385055797266779 -0.0" pbc="F F F"
O       -0.08658688       0.82691588       0.01708092
C       -0.70313737      -0.43130199      -0.03228638
C        0.74687969      -0.39550128      -0.03180479
H       -1.18574753      -0.70480529       0.88273107
H       -1.34241136      -0.68502428      -0.87982408
H        1.28779949      -0.66260163      -0.93108460
H        1.25014859      -0.69698009       0.88950522
7
Properties=species:S:1:pos:R:3 C2H4O=T energy=-4181.764945393823 dipole="-0.0 -0.385055797266779 -0.0" pbc="F F F"
O       -0.01139522       0.67302271      -0.00039964
C       -0.78894410      -0.36502254       0.11328152
C        0.69496099      -0.47471873       0.02727633
H       -1.21574898      -0.60482382       0.92092839
H       -1.31288921      -0.59588186      -0.95820497
H        1.25168143      -0.63907280      -0.92149223
H        1.30453708      -0.63989445       0.92816421
7
Properties=species:S:1:pos:R:3 C2H4O=T energy=-4181.764945393823 dipole="-0.0 -0.385055797266779 -0.0" pbc="F F F"
O        0.02636917       0.73886152      -0.01391984
C       -0.80809362      -0.44012452      -0.03802819
C        0.78084512      -0.38360502       0.02223078
H       -1.23785194      -0.65140842       0.90778722
H       -1.18175694      -0.69738551      -0.90214284
H        1.20572329      -0.74186823      -0.92763460
H        1.22099862      -0.56998548       0.88631265
7
Properties=species:S:1:pos:R:3 C2H4O=T energy=-4181.764945393823 dipole="-0.0 -0.385055797266779 -0.0" pbc="F F F"
O       -0.02540087       0.77547310      -0.00938648
C       -0.78782838      -0.49767855       0.15552767
C        0.77579930      -0.43365488       0.03041769
H       -1.24521233      -0.72120253       1.01872111
H       -1.32031921      -0.67533149      -0.91085068
H        1.26430804      -0.65320320      -0.89982624
H        1.28477420      -0.66043920       0.89377135
7
Properties=species:S:1:pos:R:3 C2H4O=T energy=-4181.764945393823 dipole="-0.0 -0.385055797266779 -0.0" pbc="F F F"
O       -0.03749884       0.76710749      -0.01001429
C       -0.88114315      -0.39067526      -0.00137190
C        0.67605457      -0.41608020      -0.03406431
H       -1.26417353      -0.76082163       1.00924241
H       -1.24098390      -0.74156251      -0.94248159
H        1.28025874      -0.63177393      -0.93934181
H        1.27482919      -0.66791804       0.90512891
7
Properties=species:S:1:pos:R:3 C2H4O=T energy=-4181.764945393823 dipole="-0.0 -0.385055797266779 -0.0" pbc="F F F"
O        0.04992400       0.81822186       0.06327632
C       -0.76454081      -0.47691800       0.04913323
C        0.77142426      -0.41706552       0.02274896
H       -1.26496449      -0.65133552       0.92729829
H       -1.28605306      -0.59449622      -0.84241664
H        1.26333145      -0.65841928      -0.92477691
H        1.25942463      -0.68334352       0.96902031
7
Properties=species:S:1:pos:R:3 C2H4O=T energy=-4181.764945393823 dipole="-0.0 -0.385055797266779 -0.0" pbc="F F F"
O        0.02004588       0.67466451      -0.02803205
C       -0.77654093      -0.41910604       0.02098921
C        0.78071330      -0.39495329      -0.04881051
H       -1.20923958      -0.67596634       0.93764557
H       -1.26983347      -0.60631133      -0.96958436
H        1.28416541      -0.70461070      -0.91981881
H        1.33734416      -0.73424481       0.91795743
7
Properties=species:S:1:pos:R:3 C2H4O=T energy=-4181.764945393823 dipole="-0.0 -0.385055797266779 -0.0" pbc="F F F"
O       -0.07234912       0.82264382      -0.06354987
C       -0.64159472      -0.42374860      -0.03796300
C        0.65628803      -0.50273829       0.01841633
H       -1.28284356      -0.76122042       0.87269764
H       -1.20361185      -0.58665356      -1.02807355
H        1.31061957      -0.64234962      -0.91877182
H        1.27436092      -0.66351768       0.85934684
7
Properties=species:S:1:pos:R:3 C2H4O=T energy=-4181.764945393823 dipole="-0.0 -0.385055797266779 -0.0" pbc="F F F"
O        0.02983202       0.77555460       0.01330349
C       -0.65876180      -0.40763519       0.05200940
C        0.84014042      -0.53141411       0.02484474
H       -1.29124298      -0.71899159       0.85892273
H       -1.27887435      -0.78439822      -0.97460366
H        1.21638613      -0.73255478      -0.92810303
H        1.31060249      -0.66669156       0.99661178
7
Properties=species:S:1:pos:R:3 C2H4O=T energy=-4181.764945393823 dipole="-0.0 -0.385055797266779 -0.0" pbc="F F F"
O       -0.03355130       0.66522792      -0.06460046
C       -0.81594123      -0.40518379      -0.01415348
C        0.77184806      -0.40845472       0.09830653
H       -1.31779704      -0.66616762       0.94226565
H       -1.34299560      -0.72168257      -0.96137361
H        1.23189637      -0.59882093      -0.99482024
H        1.26513930      -0.69446375       1.01068212
7
Properties=species:S:1:pos:R:3 C2H4O=T energy=-4181.764945393823 dipole="-0.0 -0.385055797266779 -0.0" pbc="F F F"
O       -0.01508465       0.82414191      -0.01541894
C       -0.66275792      -0.42742760       0.03007458
C        0.63195570      -0.41521572      -0.06883419
H       -1.31170726      -0.65820395       0.89267366
H       -1.18291822      -0.67813400      -0.90305375
H        1.26076014      -0.60899299      -0.90638869
H        1.27504152      -0.59977406       0.82223499
7
Properties=species:S:1:pos:R:3 C2H4O=T energy=-4181.764945393823 dipole="-0.0 -0.385055797266779 -0.0" pbc="F F F"
O       -0.00723370       0.85872805       0.02725929
C       -0.74728553      -0.47931936      -0.08435774
C        0.74150888      -0.43469639      -0.02207438
H       -1.28450910      -0.62567379       0.95000524
H       -1.30055709      -0.72582405      -0.90316901
H        1.30038489      -0.70817289      -0.95374431
H        1.20673885      -0.78008941       0.93837157
7
Properties=species:S:1:pos:R:3 C2H4O=T energy=-4181.764945393823 dipole="-0.0 -0.385055797266779 -0.0" pbc="F F F"
O       -0.02238109       0.79759758      -0.01538152
C       -0.72550591      -0.53240576      -0.05804527
C        0.66499732      -0.48306321       0.09773575
H       -1.30491457      -0.74589404       0.91986042
H       -1.22023721      -0.66220515      -0.86649997
H        1.26925811      -0.67929716      -0.92517625
H        1.29629622      -0.68144039       0.97635117
7
Properties=species:S:1:pos:R:3 C2H4O=T energy=-4181.764945393823 dipole="-0.0 -0.385055797266779 -0.0" pbc="F F F"
O       -0.01841965       0.69877605      -0.04591641
C       -0.77469291      -0.51211191      -0.04792553
C        0.78753226      -0.45422046      -0.04817054
H       -1.27111614      -0.66549139       0.86332956
H       -1.25550275      -0.59042855      -0.89963304
H        1.13739153      -0.60666104      -0.94477329
H        1.25783815      -0.57301899       0.98919670
7
Properties=species:S:1:pos:R:3 C2H4O=T energy=-4181.764945393823 dipole="-0.0 -0.385055797266779 -0.0" pbc="F F F"
O        0.11262446       0.78584710      -0.09604371
C       -0.75767795      -0.44144950       0.00267877
C        0.72346757      -0.45362458      -0.06688633
H       -1.25228867      -0.58992158       0.94321029
H       -1.13168038      -0.67913999      -0.97078794
H        1.23559963      -0.64974229      -0.98045303
H        1.25085329      -0.62671014       0.90995284
