7
Properties=species:S:1:pos:R:3 C2H4O=T energy=-4181.764945393823 dipole="-0.0 -0.385055797266779 -0.0" pbc="F F F"
O        0.02357181       0.70737553       0.07163546
C       -0.74452218      -0.48304993       0.04435815
C        0.77186896      -0.47884667       0.00078482
H       -1.37595718      -0.61076902       0.96957352
H       -1.21615656      -0.76933365      -0.93668009
H        1.26392874      -0.64799819      -0.90552162
H        1.32988078      -0.74561609       0.90984385
7
Properties=species:S:1:pos:R:3 C2H4O=T energy=-4181.764945393823 dipole="-0.0 -0.385055797266779 -0.0" pbc="F F F"
O       -0.03279842       0.77659538       0.02767206
C       -0.66298201      -0.47048575       0.03377770
C        0.63803818      -0.45617592       0.05294846
H       -1.28371494      -0.65139893       0.97235515
H       -1.21152586      -0.62508505      -0.92608080
H        1.27005847      -0.68441060      -0.87789248
H        1.38337090      -0.66446083       0.89165387
7
Properties=species:S:1:pos:R:3 C2H4O=T energy=-4181.764945393823 dipole="-0.0 -0.385055797266779 -0.0" pbc="F F F"
O        0.00180715       0.66317543       0.01238972
C       -0.77374743      -0.45386023       0.00091446
C        0.76666024      -0.43625706       0.04205044
H       -1.33611343      -0.73836947       0.91493031
H       -1.29123489      -0.67550189      -0.90227520
H        1.26204717      -0.63998394      -0.84269328
H        1.21511105      -0.67178805       0.93537461
7
Properties=species:S:1:pos:R:3 C2H4O=T energy=-4181.764945393823 dipole="-0.0 -0.385055797266779 -0.0" pbc="F F F"
O       -0.01042489       0.81861435      -0.12002257
C       -0.62735941      -0.50415205       0.01059417
C        0.76412557      -0.48629225       0.02310299
H       -1.22861152      -0.64209541       0.87366350
H       -1.16343062      -0.65692278      -0.97760918
H        1.29542179      -0.66629523      -0.89675660
H        1.08564704      -0.60221553       0.92760770
7
Properties=species:S:1:pos:R:3 C2H4O=T energy=-4181.764945393823 dipole="-0.0 -0.385055797266779 -0.0" pbc="F F F"
O        0.00822653       0.74541953       0.03836855
C       -0.67964360      -0.43347870       0.06959931
C        0.73288166      -0.46701872      -0.05139253
H       -1.29305884      -0.62744111       0.91587887
H       -1.28106107      -0.64185650      -0.97342566
H        1.23822875      -0.65371059      -0.89164954
H        1.28900246      -0.65400603       0.94419058
7
Properties=species:S:1:pos:R:3 C2H4O=T energy=-4181.764945393823 dipole="-0.0 -0.385055797266779 -0.0" pbc="F F F"
O        0.06817413       0.72786905      -0.02340077
C       -0.66766087      -0.51107590       0.04377378
C        0.64335377      -0.46955875       0.03745819
H       -1.27401957      -0.67737958       0.95400902
H       -1.35474772      -0.66591733      -0.90023401
H        1.25140122      -0.69915619      -0.95412042
H        1.28563575      -0.75342145       0.93966170
7
Properties=species:S:1:pos:R:3 C2H4O=T energy=-4181.764945393823 dipole="-0.0 -0.385055797266779 -0.0" pbc="F F F"
O       -0.02396615       0.75197350       0.03470527
C       -0.69495811      -0.43504269       0.00756133
C        0.76969590      -0.35234377       0.03198164
H       -1.31192437      -0.77253409       1.01648856
H       -1.35059021      -0.60775172      -0.88010445
H        1.24483228      -0.63314275      -0.96249353
H        1.32266349      -0.69448762       0.95502156
7
Properties=species:S:1:pos:R:3 C2H4O=T energy=-4181.764945393823 dipole="-0.0 -0.385055797266779 -0.0" pbc="F F F"
O        0.04920945       0.76083789       0.11828854
C       -0.70408244      -0.40719075      -0.02370104
C        0.72605475      -0.37913063      -0.04024169
H       -1.37000394      -0.68494593       0.87564025
H       -1.24711287      -0.64143172      -0.95716774
H        1.24781263      -0.71408080      -0.96295963
H        1.27512214      -0.63683202       0.92930089
7
Properties=species:S:1:pos:R:3 C2H4O=T energy=-4181.764945393823 dipole="-0.0 -0.385055797266779 -0.0" pbc="F F F"
O        0.04762397       0.81633119      -0.00363031
C       -0.75641974      -0.49392812      -0.06195358
C        0.73587370      -0.45817144       0.10618459
H       -1.25770926      -0.73874240       0.99112552
H       -1.37121552      -0.73564754      -0.90179799
H        1.26308521      -0.60465111      -0.99245455
H        1.20404668      -0.69786396       0.89925093
7
Properties=species:S:1:pos:R:3 C2H4O=T energy=-4181.764945393823 dipole="-0.0 -0.385055797266779 -0.0" pbc="F F F"
O       -0.07128969       0.77739405      -0.02964419
C       -0.80254541      -0.49184952       0.05521758
C        0.70731206      -0.45507734       0.04445787
H       -1.24940409      -0.72084776       0.90399815
H       -1.29482242      -0.66042099      -0.94854899
H        1.31670448      -0.70784530      -0.94620759
H        1.26741677      -0.57273284       0.95937440
7
Properties=species:S:1:pos:R:3 C2H4O=T energy=-4181.764945393823 dipole="-0.0 -0.385055797266779 -0.0" pbc="F F F"
O        0.02565416       0.73960350       0.05219734
C       -0.62350033      -0.37402412       0.05077027
C        0.76634877      -0.48079656       0.02201332
H       -1.22937434      -0.68210312       1.01620289
H       -1.24326257      -0.62373266      -0.90865806
H        1.15989193      -0.68766517      -0.92433157
H        1.32014216      -0.65591522       0.92603476
7
Properties=species:S:1:pos:R:3 C2H4O=T energy=-4181.764945393823 dipole="-0.0 -0.385055797266779 -0.0" pbc="F F F"
O        0.01494925       0.75906935      -0.03702334
C       -0.79127224      -0.43454773       0.02905367
C        0.86708174      -0.42705422       0.03342441
H       -1.27761162      -0.64324666       0.96312946
H       -1.31640416      -0.73787361      -0.86228011
H        1.32292003      -0.64870229      -0.96402857
H        1.27857687      -0.57508076       0.83436247
7
Properties=species:S:1:pos:R:3 C2H4O=T energy=-4181.764945393823 dipole="-0.0 -0.385055797266779 -0.0" pbc="F F F"
O       -0.07035418       0.77326337       0.00018810
C       -0.79233930      -0.48896264       0.02769606
C        0.70368740      -0.48644250       0.07647003
H       -1.25355019      -0.65262015       0.96330226
H       -1.24886924      -0.61444388      -0.90181735
H        1.35850681      -0.69255850      -0.90059250
H        1.26500075      -0.70128229       0.90404192
7
Properties=species:S:1:pos:R:3 C2H4O=T energy=-4181.764945393823 dipole="-0.0 -0.385055797266779 -0.0" pbc="F F F"
O       -0.03613306       0.77579365       0.04917575
C       -0.72771436      -0.41933164       0.01768846
C        0.71510986      -0.47154467      -0.01872183
H       -1.38369813      -0.59121931       0.92313045
H       -1.27804480      -0.73155094      -0.83057724
H        1.24609738      -0.67350892      -0.90066354
H        1.30496164      -0.70246030       0.97283634
7
Properties=species:S:1:pos:R:3 C2H4O=T energy=-4181.764945393823 dipole="-0.0 -0.385055797266779 -0.0" pbc="F F F"
O        0.00159405       0.83408343      -0.00252687
C       -0.74709009      -0.52468761      -0.01596489
C        0.75524186      -0.41146487      -0.01087727
H       -1.13193337      -0.75537769       0.91525448
H       -1.19226358      -0.63863299      -0.91146138
H        1.17623752      -0.65384179      -0.94710520
H        1.27240299      -0.61912992       0.91870872
7
Properties=species:S:1:pos:R:3 C2H4O=T energy=-4181.764945393823 dipole="-0.0 -0.385055797266779 -0.0" pbc="F F F"
O       -0.01437757       0.81314645      -0.00306220
C       -0.76544126      -0.49815918       0.04979965
C        0.77666744      -0.41132845       0.00666855
H       -1.30417485      -0.68537135       1.01541520
H       -1.25602661      -0.63028828      -0.94112653
H        1.27290646      -0.65454623      -0.91658060
H        1.26197373      -0.67681086       0.93332483
7
Properties=species:S:1:pos:R:3 C2H4O=T energy=-4181.764945393823 dipole="-0.0 -0.385055797266779 -0.0" pbc="F F F"
O        0.06914991       0.76580127       0.00656988
C       -0.70716773      -0.43379379       0.02828292
C        0.75814375      -0.45573540      -0.05356843
H       -1.26624596      -0.71053533       0.94073125
H       -1.24254624      -0.71730713      -0.94136753
H        1.33875132      -0.68627869      -0.94288824
H        1.19692445      -0.67034014       0.96102857
7
Properties=species:S:1:pos:R:3 C2H4O=T energy=-4181.764945393823 dipole="-0.0 -0.385055797266779 -0.0" pbc="F F F"
O        0.10489009       0.83107097       0.01351701
C       -0.67873257      -0.39308681       0.01703763
C        0.71898579      -0.32294757       0.06926274
H       -1.32155298      -0.73167426       0.95036933
H       -1.31782759      -0.69883499      -0.91487446
H        1.19199412      -0.65773501      -0.96482143
H        1.17760322      -0.57865385       0.85434053
7
Properties=species:S:1:pos:R:3 C2H4O=T energy=-4181.764945393823 dipole="-0.0 -0.385055797266779 -0.0" pbc="F F F"
O        0.02779392       0.73283024       0.07863725
C       -0.73412217      -0.35450060      -0.01666752
C        0.73856275      -0.47185774       0.05163616
H       -1.35081312      -0.70606392       0.87592063
H       -1.24412816      -0.71577219      -0.90335089
H        1.29027004      -0.72429691      -0.91756301
H        1.26692229      -0.71964659       0.90805940
7
Properties=species:S:1:pos:R:3 C2H4O=T energy=-4181.764945393823 dipole="-0.0 -0.385055797266779 -0.0" pbc="F F F"
O        0.09660896       0.75559270      -0.04619143
C       -0.71109764      -0.51052366      -0.00977362
C        0.70571857      -0.39754975       0.06943237
H       -1.20943724      -0.64633075       0.87189611
H       -1.20154227      -0.64312463      -0.95154616
H        1.22861022      -0.68029499      -0.89069625
H        1.28146290      -0.75904869       0.87446998
7
Properties=species:S:1:pos:R:3 C2H4O=T energy=-4181.764945393823 dipole="-0.0 -0.385055797266779 -0.0" pbc="F F F"
O       -0.03742635       0.76151806       0.01373905
C       -0.71702210      -0.46001267      -0.01562211
C        0.75131503      -0.44999709      -0.02350074
H       -1.24634459      -0.71964425       0.90464430
H       -1.19351396      -0.73075575      -0.99798366
H        1.34169270      -0.69793868      -0.92849065
H        1.34745421      -0.69531080       0.88576975
7
Properties=species:S:1:pos:R:3 C2H4O=T energy=-4181.764945393823 dipole="-0.0 -0.385055797266779 -0.0" pbc="F F F"
O        0.02999815       0.75606435       0.01657644
C       -0.74805782      -0.48611129       0.01331187
C        0.74286094      -0.50800177      -0.03619745
H       -1.35056185      -0.65468777       0.92493182
H       -1.28197727      -0.69768225      -0.91867913
H        1.23520770      -0.61299151      -0.98037700
H        1.19683782      -0.56451154       0.84550568
7
Properties=species:S:1:pos:R:3 C2H4O=T energy=-4181.764945393823 dipole="-0.0 -0.385055797266779 -0.0" pbc="F F F"
O       -0.05754760       0.78787730       0.02067037
C       -0.69301074      -0.43393425      -0.01213856
C        0.70382613      -0.48192694       0.06922901
H       -1.27814420      -0.64326733       1.01753138
H       -1.27774114      -0.66643160      -0.89768359
H        1.19330528      -0.64577079      -0.89420224
H        1.20611867      -0.73727948       0.89518452
7
Properties=species:S:1:pos:R:3 C2H4O=T energy=-4181.764945393823 dipole="-0.0 -0.385055797266779 -0.0" pbc="F F F"
O       -0.02066390       0.68095848      -0.00147794
C       -0.76719158      -0.44202639      -0.03565120
C        0.61758366      -0.41073478       0.04584881
H       -1.29201744      -0.74437979       0.91926228
H       -1.27615881      -0.67653738      -0.91402052
H        1.16007380      -0.71840862      -0.89379892
H        1.30489874      -0.67570790       0.91770765
7
Properties=species:S:1:pos:R:3 C2H4O=T energy=-4181.764945393823 dipole="-0.0 -0.385055797266779 -0.0" pbc="F F F"
O       -0.03522460       0.85344009       0.01144647
C       -0.67425254      -0.46469907      -0.00153294
C        0.71888095      -0.47108600       0.08557130
H       -1.19205358      -0.72664683       0.92201839
H       -1.24572186      -0.63964130      -0.86475321
H        1.24253922      -0.63048642      -0.91946215
H        1.27505216      -0.72500622       0.87240012
7
Properties=species:S:1:pos:R:3 C2H4O=T energy=-4181.764945393823 dipole="-0.0 -0.385055797266779 -0.0" pbc="F F F"
O       -0.00635647       0.76837153       0.10520398
C       -0.65051388      -0.47823197      -0.02003221
C        0.67203646      -0.49217844      -0.05486390
H       -1.26738839      -0.73423776       0.89197157
H       -1.25557504      -0.69985020      -0.96332971
H        1.21369469      -0.60790345      -0.83437687
H        1.23259340      -0.67887810       0.86029796
7
Properties=species:S:1:pos:R:3 C2H4O=T energy=-4181.764945393823 dipole="-0.0 -0.385055797266779 -0.0" pbc="F F F"
O        0.03287934       0.77692830       0.05456310
C       -0.75334069      -0.37860948       0.04458126
C        0.77076785      -0.42131325      -0.00250248
H       -1.22662529      -0.75447332       0.92447130
H       -1.24768579      -0.68712838      -0.91998726
H        1.31632850      -0.67670582      -0.88008240
H        1.29144909      -0.72592547       1.00205378
7
Properties=species:S:1:pos:R:3 C2H4O=T energy=-4181.764945393823 dipole="-0.0 -0.385055797266779 -0.0" pbc="F F F"
O       -0.07194884       0.86831129      -0.06826576
C       -0.72528215      -0.41636291       0.07445832
C        0.73995437      -0.52356510       0.04009441
H       -1.28504627      -0.61232806       0.99845362
H       -1.19243618      -0.73686280      -0.93329711
H        1.30278355      -0.67341157      -0.94929945
H        1.27583550      -0.71817359       0.92953467
7
Properties=species:S:1:pos:R:3 C2H4O=T energy=-4181.764945393823 dipole="-0.0 -0.385055797266779 -0.0" pbc="F F F"
O       -0.04764010       0.84047414       0.03594536
C       -0.73721757      -0.40878993      -0.05947217
C        0.70214668      -0.44810038      -0.05525958
H       -1.31662025      -0.61720303       1.00545902
H       -1.26234467      -0.66207881      -0.90550472
H        1.24874821      -0.64754911      -0.87248332
H        1.28991530      -0.76673395       0.94511667
7
Properties=species:S:1:pos:R:3 C2H4O=T energy=-4181.764945393823 dipole="-0.0 -0.385055797266779 -0.0" pbc="F F F"
O       -0.01772107       0.74457479      -0.05584881
C       -0.76830291      -0.39423288      -0.06522706
C        0.75587630      -0.42967093       0.04370964
H       -1.34258190      -0.67626999       0.88780956
H       -1.29959131      -0.58329796      -0.85583436
H        1.24119494      -0.64858085      -0.89868919
H        1.25732050      -0.68795747       0.88792318
7
Properties=species:S:1:pos:R:3 C2H4O=T energy=-4181.764945393823 dipole="-0.0 -0.385055797266779 -0.0" pbc="F F F"
O        0.00859826       0.72491686       0.04325003
C       -0.73913266      -0.45237416      -0.01210533
C        0.68376540      -0.40712695      -0.01445479
H       -1.22997405      -0.68543001       0.94433673
H       -1.22553950      -0.77829913      -1.04977934
H        1.28760656      -0.74801514      -0.97548006
H        1.21390255      -0.78206114       0.99761653
7
Properties=species:S:1:pos:R:3 C2H4O=T energy=-4181.764945393823 dipole="-0.0 -0.385055797266779 -0.0" pbc="F F F"
O       -0.05746489       0.77635084       0.04944830
C       -0.80819641      -0.47063953      -0.00944232
C        0.73944589      -0.36643438       0.02833652
H       -1.29588179      -0.59133211       0.93545942
H       -1.28626520      -0.57981588      -0.90656620
H        1.19071157      -0.57573035      -0.83493774
H        1.28149242      -0.65144636       0.97283144
7
Properties=species:S:1:pos:R:3 C2H4O=T energy=-4181.764945393823 dipole="-0.0 -0.385055797266779 -0.0" pbc="F F F"
O        0.05993399       0.63719160      -0.03573716
C       -0.68867229      -0.38743772      -0.00636827
C        0.67514078      -0.37460703      -0.01391771
H       -1.31566386      -0.65819824       0.94506401
H       -1.18315602      -0.76315644      -0.85502209
H        1.29148204      -0.67828897      -0.89269272
H        1.27693720      -0.65731730       0.96659382
7
Properties=species:S:1:pos:R:3 C2H4O=T energy=-4181.764945393823 dipole="-0.0 -0.385055797266779 -0.0" pbc="F F F"
O        0.08715267       0.76068913       0.04770169
C       -0.69328704      -0.47598732      -0.03809097
C        0.81196465      -0.31963590      -0.00194562
H       -1.28164339      -0.76139924       1.05257618
H       -1.27063429      -0.66308344      -0.91420461
H        1.27675634      -0.59388369      -0.84725905
H        1.29903828      -0.59495324       0.93765728
7
Properties=species:S:1:pos:R:3 C2H4O=T energy=-4181.764945393823 dipole="-0.0 -0.385055797266779 -0.0" pbc="F F F"
O       -0.05427612       0.78508480      -0.09066375
C       -0.73878513      -0.42537676      -0.02702829
C        0.74367107      -0.34302828      -0.09212165
H       -1.28938123      -0.69731757       0.97311304
H       -1.26292001      -0.66713099      -1.00396579
H        1.30444397      -0.69956530      -0.98248976
H        1.29457964      -0.67434054       0.85593141
7
Properties=species:S:1:pos:R:3 C2H4O=T energy=-4181.764945393823 dipole="-0.0 -0.385055797266779 -0.0" pbc="F F F"
O        0.01623054       0.80045278       0.00745818
C       -0.71253640      -0.46466857      -0.04527638
C        0.81269881      -0.41297069      -0.03518588
H       -1.25871894      -0.60851800       0.90607825
H       -1.26643103      -0.65058673      -0.94039176
H        1.17330134      -0.71343626      -0.86727397
H        1.21477903      -0.65066687       0.95327526
7
Properties=species:S:1:pos:R:3 C2H4O=T energy=-4181.764945393823 dipole="-0.0 -0.385055797266779 -0.0" pbc="F F F"
O        0.05327513       0.75550263       0.01822431
C       -0.80463192      -0.45078355      -0.01485290
C        0.69251882      -0.45931426      -0.00639745
H       -1.28228846      -0.79942102       1.02576876
H       -1.22954469      -0.67614311      -0.85091183
H        1.26724415      -0.65264405      -0.89726356
H        1.22439928      -0.67156283       0.84905218
7
Properties=species:S:1:pos:R:3 C2H4O=T energy=-4181.764945393823 dipole="-0.0 -0.385055797266779 -0.0" pbc="F F F"
O       -0.00698762       0.73915657      -0.02509578
C       -0.69423366      -0.45928851      -0.06347159
C        0.71577335      -0.33014057      -0.03908587
H       -1.25981794      -0.73524137       0.94064877
H       -1.25360017      -0.64434825      -0.91849717
H        1.25470072      -0.66739753      -0.81726174
H        1.13722870      -0.64708008       0.87219199
7
Properties=species:S:1:pos:R:3 C2H4O=T energy=-4181.764945393823 dipole="-0.0 -0.385055797266779 -0.0" pbc="F F F"
O       -0.00668366       0.71305414       0.06249524
C       -0.70033215      -0.43216807       0.04359326
C        0.72070398      -0.41254433       0.09922950
H       -1.26973702      -0.62051431       0.86094858
H       -1.19029907      -0.66934880      -0.88443315
H        1.22323107      -0.78083151      -0.97628123
H        1.24842953      -0.71636504       0.95351747
7
Properties=species:S:1:pos:R:3 C2H4O=T energy=-4181.764945393823 dipole="-0.0 -0.385055797266779 -0.0" pbc="F F F"
O        0.00316922       0.73408452      -0.01441805
C       -0.73987926      -0.43700809      -0.04227501
C        0.86103567      -0.46370773      -0.00727542
H       -1.21915449      -0.60384307       0.93653613
H       -1.26759116      -0.67132829      -0.82717338
H        1.22617076      -0.68528215      -0.94752602
H        1.23362100      -0.56214131       0.92099145
7
Properties=species:S:1:pos:R:3 C2H4O=T energy=-4181.764945393823 dipole="-0.0 -0.385055797266779 -0.0" pbc="F F F"
O       -0.04331295       0.74912989      -0.04771701
C       -0.64931638      -0.44699112      -0.02320159
C        0.65270400      -0.43927697      -0.04203247
H       -1.26328864      -0.69545783       0.95374899
H       -1.31248988      -0.62735350      -0.92577708
H        1.22927991      -0.61632309      -0.87091263
H        1.29465391      -0.70764516       0.92101901
7
Properties=species:S:1:pos:R:3 C2H4O=T energy=-4181.764945393823 dipole="-0.0 -0.385055797266779 -0.0" pbc="F F F"
O        0.02996705       0.74801455      -0.00277333
C       -0.62971519      -0.44312609       0.02022922
C        0.68643906      -0.45092498      -0.02636561
H       -1.27595733      -0.61292332       0.91819972
H       -1.31181852      -0.69971846      -0.90655048
H        1.28824086      -0.63892893      -0.92874586
H        1.24215156      -0.66608721       0.80153152
7
Properties=species:S:1:pos:R:3 C2H4O=T energy=-4181.764945393823 dipole="-0.0 -0.385055797266779 -0.0" pbc="F F F"
O       -0.07963601       0.64484077      -0.01313658
C       -0.77002051      -0.44913391      -0.01956351
C        0.74041856      -0.43059230       0.04190243
H       -1.30921701      -0.67035809       0.82025944
H       -1.25841456      -0.69773519      -0.96922523
H        1.21201395      -0.56628656      -0.95291407
H        1.23342369      -0.62494816       0.88290270
7
Properties=species:S:1:pos:R:3 C2H4O=T energy=-4181.764945393823 dipole="-0.0 -0.385055797266779 -0.0" pbc="F F F"
O       -0.07352802       0.80234802      -0.00642551
C       -0.73692158      -0.39316198      -0.03066987
C        0.69330136      -0.44374856      -0.02107354
H       -1.28088377      -0.60266898       0.82882960
H       -1.25305397      -0.70180658      -0.90699035
H        1.28730029      -0.64365920      -0.89436769
H        1.20672186      -0.67401550       0.98327492
7
Properties=species:S:1:pos:R:3 C2H4O=T energy=-4181.764945393823 dipole="-0.0 -0.385055797266779 -0.0" pbc="F F F"
O       -0.04646145       0.77647008       0.05007789
C       -0.73376066      -0.55300034      -0.10984609
C        0.78500293      -0.34642839       0.01510054
H       -1.28830601      -0.69394826       0.86628017
H       -1.15364704      -0.68321233      -0.85267130
H        1.29516384      -0.67156140      -1.01216948
H        1.26932150      -0.56794275       0.88208364
7
Properties=species:S:1:pos:R:3 C2H4O=T energy=-4181.764945393823 dipole="-0.0 -0.385055797266779 -0.0" pbc="F F F"
O        0.05079994       0.68729965       0.01461844
C       -0.66203798      -0.45918319      -0.01155118
C        0.71194308      -0.43108969       0.06985194
H       -1.30781358      -0.66267979       0.94155463
H       -1.18313352      -0.68314014      -0.83802810
H        1.27052765      -0.65966899      -0.98822708
H        1.24275959      -0.62423880       0.84634784
7
Properties=species:S:1:pos:R:3 C2H4O=T energy=-4181.764945393823 dipole="-0.0 -0.385055797266779 -0.0" pbc="F F F"
O        0.03788554       0.73509406      -0.00079180
C       -0.74828033      -0.40253732       0.05670786
C        0.81547105      -0.48229648      -0.06429052
H       -1.29573343      -0.63323157       0.96403325
H       -1.29648296      -0.73426921      -0.96091185
H        1.27195793      -0.63478286      -0.94868024
H        1.30100723      -0.63743518       0.96856951
7
Properties=species:S:1:pos:R:3 C2H4O=T energy=-4181.764945393823 dipole="-0.0 -0.385055797266779 -0.0" pbc="F F F"
O       -0.03559513       0.73013967      -0.04817308
C       -0.70593270      -0.41420858       0.03757517
C        0.63528036      -0.47483449       0.01360820
H       -1.21724564      -0.65189419       0.95701691
H       -1.30391802      -0.74738131      -1.00098573
H        1.26615091      -0.75226230      -0.85018160
H        1.22157430      -0.62757046       0.91748905
7
Properties=species:S:1:pos:R:3 C2H4O=T energy=-4181.764945393823 dipole="-0.0 -0.385055797266779 -0.0" pbc="F F F"
O        0.02671239       0.72657385       0.04208215
C       -0.75679822      -0.47847836       0.05888336
C        0.68663550      -0.46109244       0.08599785
H       -1.31769791      -0.73718489       0.90521900
H       -1.18237998      -0.68714279      -0.91863832
H        1.21771091      -0.73910873      -0.87679982
H        1.25360258      -0.77376281       0.89367197
7
Properties=species:S:1:pos:R:3 C2H4O=T energy=-4181.764945393823 dipole="-0.0 -0.385055797266779 -0.0" pbc="F F F"
O        0.00261885       0.67971463       0.00276106
C       -0.70721592      -0.44952345      -0.03252562
C        0.77375524      -0.51558353       0.01264792
H       -1.28822351      -0.63640230       0.82550100
H       -1.34991534      -0.69278311      -0.87616469
H        1.23889249      -0.63409072      -0.90159000
H        1.31743781      -0.66644181       0.92798738
