7
Properties=species:S:1:pos:R:3 C2H4O=T energy=-4181.764945393823 dipole="-0.0 -0.385055797266779 -0.0" pbc="F F F"
O        0.02483576       0.76001109       0.03238454
C       -0.65273810      -0.45872816      -0.01170685
C        0.80785018      -0.40864875      -0.02347372
H       -1.23669493      -0.69144169       0.89668973
H       -1.25172466      -0.76393492      -1.00622211
H        1.23570844      -0.71891242      -0.90426385
H        1.21842167      -0.73888600       0.99325861
7
Properties=species:S:1:pos:R:3 C2H4O=T energy=-4181.764945393823 dipole="-0.0 -0.385055797266779 -0.0" pbc="F F F"
O       -0.01128877       0.77030072      -0.07123730
C       -0.75610873      -0.44147436      -0.05754968
C        0.74767444      -0.47705242      -0.01458469
H       -1.29390826      -0.57565690       0.91930136
H       -1.31670832      -0.62714366      -0.98101840
H        1.27426600      -0.76625437      -0.98638552
H        1.27366593      -0.63134748       0.92854458
7
Properties=species:S:1:pos:R:3 C2H4O=T energy=-4181.764945393823 dipole="-0.0 -0.385055797266779 -0.0" pbc="F F F"
O       -0.00578236       0.75186913      -0.07392599
C       -0.76488180      -0.47005243       0.05285611
C        0.74607045      -0.53517250       0.01620420
H       -1.28307704      -0.70211691       0.95056003
H       -1.21227279      -0.62170690      -0.96193710
H        1.24836220      -0.65170769      -0.87119896
H        1.23986416      -0.67755376       0.86465942
7
Properties=species:S:1:pos:R:3 C2H4O=T energy=-4181.764945393823 dipole="-0.0 -0.385055797266779 -0.0" pbc="F F F"
O       -0.05981028       0.80755060       0.06781211
C       -0.73249010      -0.39684385       0.01808180
C        0.69663355      -0.42895071       0.07690183
H       -1.26561423      -0.59003863       0.78898896
H       -1.22272764      -0.66391856      -0.93492659
H        1.26841086      -0.76764931      -0.93095981
H        1.28167850      -0.59437611       0.89406266
7
Properties=species:S:1:pos:R:3 C2H4O=T energy=-4181.764945393823 dipole="-0.0 -0.385055797266779 -0.0" pbc="F F F"
O       -0.04042463       0.74183646       0.04577022
C       -0.71245203      -0.47350850       0.02566337
C        0.73374342      -0.39858824      -0.03510265
H       -1.28020604      -0.68787622       0.84680047
H       -1.24901676      -0.65521815      -0.91972055
H        1.25209346      -0.73903940      -0.94100849
H        1.24668714      -0.70838467       0.91191188
7
Properties=species:S:1:pos:R:3 C2H4O=T energy=-4181.764945393823 dipole="-0.0 -0.385055797266779 -0.0" pbc="F F F"
O        0.02020259       0.86123361       0.00872900
C       -0.71601207      -0.45074279      -0.09593856
C        0.72756385      -0.44400898       0.12316211
H       -1.27344098      -0.65319344       0.91824063
H       -1.32225667      -0.61112977      -0.88237957
H        1.30337442      -0.71374023      -0.84983650
H        1.19373032      -0.63892796       1.02949895
7
Properties=species:S:1:pos:R:3 C2H4O=T energy=-4181.764945393823 dipole="-0.0 -0.385055797266779 -0.0" pbc="F F F"
O       -0.04952677       0.73860942       0.00498268
C       -0.75406337      -0.52455366       0.00342815
C        0.67577435      -0.42334087      -0.04597121
H       -1.18632621      -0.70743347       0.90387314
H       -1.22314691      -0.72981413      -0.90860322
H        1.32917996      -0.74864502      -0.91074453
H        1.27681701      -0.62917967       0.85812863
7
Properties=species:S:1:pos:R:3 C2H4O=T energy=-4181.764945393823 dipole="-0.0 -0.385055797266779 -0.0" pbc="F F F"
O       -0.06602278       0.79302139       0.01484934
C       -0.71636495      -0.42969808      -0.03400124
C        0.74050222      -0.43236687      -0.03571757
H       -1.17053420      -0.64457916       0.86041105
H       -1.23099509      -0.71700499      -0.88062199
H        1.32175260      -0.70930498      -0.87180741
H        1.28446192      -0.62716780       1.01481582
7
Properties=species:S:1:pos:R:3 C2H4O=T energy=-4181.764945393823 dipole="-0.0 -0.385055797266779 -0.0" pbc="F F F"
O       -0.01226936       0.72923750      -0.04447561
C       -0.76968010      -0.45087558       0.01705760
C        0.74272408      -0.40566133       0.00065009
H       -1.19114623      -0.68150365       1.05598468
H       -1.23253940      -0.71112879      -0.97352084
H        1.28794644      -0.67944400      -0.88427620
H        1.28748475      -0.67191226       0.87763648
7
Properties=species:S:1:pos:R:3 C2H4O=T energy=-4181.764945393823 dipole="-0.0 -0.385055797266779 -0.0" pbc="F F F"
O       -0.07574231       0.74459856       0.04282005
C       -0.71818490      -0.50930743       0.00865905
C        0.74815541      -0.49121336       0.00768626
H       -1.26091249      -0.72541932       0.93786559
H       -1.23578354      -0.61411835      -0.86728612
H        1.19493935      -0.71516211      -0.89422446
H        1.28951217      -0.64251843       1.11261274
7
Properties=species:S:1:pos:R:3 C2H4O=T energy=-4181.764945393823 dipole="-0.0 -0.385055797266779 -0.0" pbc="F F F"
O        0.02854458       0.82370259       0.04770020
C       -0.69632003      -0.46278395       0.03794846
C        0.69024828      -0.45886142      -0.02426818
H       -1.25972922      -0.55253788       0.82661296
H       -1.22950976      -0.74890670      -0.94357281
H        1.31827035      -0.66505686      -0.97386346
H        1.22805768      -0.63429092       0.88345784
7
Properties=species:S:1:pos:R:3 C2H4O=T energy=-4181.764945393823 dipole="-0.0 -0.385055797266779 -0.0" pbc="F F F"
O        0.01082298       0.76920290      -0.03257991
C       -0.62169239      -0.41532454      -0.10125713
C        0.73821226      -0.48010981       0.04262167
H       -1.30344897      -0.67400763       0.94522558
H       -1.22053501      -0.72828573      -0.93670128
H        1.24007555      -0.70093732      -0.83170351
H        1.28407196      -0.73131501       0.96586927
7
Properties=species:S:1:pos:R:3 C2H4O=T energy=-4181.764945393823 dipole="-0.0 -0.385055797266779 -0.0" pbc="F F F"
O        0.10610786       0.81854757      -0.07596839
C       -0.75310129      -0.38367493      -0.03538347
C        0.75108051      -0.40828879      -0.04634652
H       -1.26679920      -0.83033418       0.86875684
H       -1.27645118      -0.73066007      -0.83835565
H        1.19231575      -0.69027308      -0.91343919
H        1.33588653      -0.74006392       0.97813436
7
Properties=species:S:1:pos:R:3 C2H4O=T energy=-4181.764945393823 dipole="-0.0 -0.385055797266779 -0.0" pbc="F F F"
O        0.00051170       0.71784888       0.02310528
C       -0.71893661      -0.47703133       0.00349010
C        0.70962386      -0.44134462       0.03310653
H       -1.18452209      -0.73016158       1.02662789
H       -1.36142716      -0.67586016      -0.89056036
H        1.27787241      -0.69940584      -0.93038233
H        1.23917282      -0.69773905       0.96245627
7
Properties=species:S:1:pos:R:3 C2H4O=T energy=-4181.764945393823 dipole="-0.0 -0.385055797266779 -0.0" pbc="F F F"
O        0.01785082       0.73227883       0.04498010
C       -0.71352461      -0.40637738       0.03148144
C        0.68743979      -0.47502954       0.03736468
H       -1.23330442      -0.66931589       0.92584259
H       -1.19993953      -0.69784948      -0.89262135
H        1.25371319      -0.67915492      -0.86503738
H        1.30509369      -0.62759533       0.98525011
7
Properties=species:S:1:pos:R:3 C2H4O=T energy=-4181.764945393823 dipole="-0.0 -0.385055797266779 -0.0" pbc="F F F"
O        0.00105024       0.80102196      -0.01551323
C       -0.71268127      -0.45352764       0.00484980
C        0.75864739      -0.48793152       0.10461936
H       -1.31412380      -0.72898024       0.97788176
H       -1.22423964      -0.63706492      -0.88855894
H        1.26321048      -0.71313358      -0.91618599
H        1.22996478      -0.61951482       0.91262330
7
Properties=species:S:1:pos:R:3 C2H4O=T energy=-4181.764945393823 dipole="-0.0 -0.385055797266779 -0.0" pbc="F F F"
O       -0.04127481       0.75085502       0.02064668
C       -0.75707582      -0.48813151       0.01218436
C        0.74113787      -0.47236765      -0.02355192
H       -1.25222043      -0.74067503       0.84960303
H       -1.29974498      -0.67894327      -0.90443084
H        1.33759063      -0.62538788      -0.92797315
H        1.26287206      -0.71839728       0.91905051
7
Properties=species:S:1:pos:R:3 C2H4O=T energy=-4181.764945393823 dipole="-0.0 -0.385055797266779 -0.0" pbc="F F F"
O       -0.01443288       0.78306024      -0.04136144
C       -0.70292226      -0.37038354      -0.00543801
C        0.74897513      -0.41251329      -0.02006102
H       -1.25261831      -0.66764119       0.92486002
H       -1.30247326      -0.66704540      -0.89507631
H        1.33638000      -0.62030732      -0.81231710
H        1.22545549      -0.62465478       0.92914327
7
Properties=species:S:1:pos:R:3 C2H4O=T energy=-4181.764945393823 dipole="-0.0 -0.385055797266779 -0.0" pbc="F F F"
O        0.10949020       0.72650940      -0.04198598
C       -0.75885922      -0.55321528      -0.02628775
C        0.69093291      -0.43950080       0.01708780
H       -1.17001439      -0.62074962       0.89113104
H       -1.30874350      -0.64367495      -0.98598788
H        1.35539576      -0.60929885      -0.94343500
H        1.17816614      -0.60057719       0.91424918
7
Properties=species:S:1:pos:R:3 C2H4O=T energy=-4181.764945393823 dipole="-0.0 -0.385055797266779 -0.0" pbc="F F F"
O        0.06189087       0.68720293      -0.02996864
C       -0.72862741      -0.44467146      -0.02250327
C        0.76003204      -0.50040151      -0.00711897
H       -1.25780815      -0.64254887       0.95555696
H       -1.32005487      -0.74497662      -0.85609238
H        1.28043852      -0.70569519      -0.84241862
H        1.26960660      -0.60930595       0.92335209
7
Properties=species:S:1:pos:R:3 C2H4O=T energy=-4181.764945393823 dipole="-0.0 -0.385055797266779 -0.0" pbc="F F F"
O        0.10303745       0.85469135      -0.01244810
C       -0.68031104      -0.41475169       0.06843158
C        0.68064337      -0.41271792       0.05292122
H       -1.35175990      -0.72743374       0.81801461
H       -1.27729311      -0.63239380      -0.84485837
H        1.26752756      -0.58684008      -0.98898129
H        1.17865375      -0.67104819       0.93917944
7
Properties=species:S:1:pos:R:3 C2H4O=T energy=-4181.764945393823 dipole="-0.0 -0.385055797266779 -0.0" pbc="F F F"
O       -0.00163469       0.66355220      -0.00445589
C       -0.79411307      -0.41353686       0.01832991
C        0.68189555      -0.47271384      -0.05296068
H       -1.26695688      -0.62051369       0.87068992
H       -1.23862044      -0.69478379      -0.95961986
H        1.25847130      -0.72003298      -0.94765869
H        1.20392898      -0.57003455       0.92173935
7
Properties=species:S:1:pos:R:3 C2H4O=T energy=-4181.764945393823 dipole="-0.0 -0.385055797266779 -0.0" pbc="F F F"
O       -0.03498623       0.77762331      -0.00561629
C       -0.73993807      -0.41631215       0.03787539
C        0.70236448      -0.47581140      -0.01375258
H       -1.37891899      -0.74403036       0.98831993
H       -1.18157438      -0.68072271      -0.89114837
H        1.27938533      -0.51432682      -0.86399747
H        1.25742699      -0.71604783       0.83965385
7
Properties=species:S:1:pos:R:3 C2H4O=T energy=-4181.764945393823 dipole="-0.0 -0.385055797266779 -0.0" pbc="F F F"
O        0.01017323       0.72910677      -0.07111258
C       -0.76121823      -0.50109789       0.08435708
C        0.77297153      -0.44741912       0.07399721
H       -1.25995451      -0.71133502       0.99613242
H       -1.23687727      -0.72013322      -0.92949315
H        1.22004191      -0.73741085      -0.87366734
H        1.35929370      -0.73819919       0.94812463
7
Properties=species:S:1:pos:R:3 C2H4O=T energy=-4181.764945393823 dipole="-0.0 -0.385055797266779 -0.0" pbc="F F F"
O       -0.03253208       0.74256804      -0.02961959
C       -0.77208913      -0.44459441      -0.04154751
C        0.74241238      -0.44953240      -0.01194740
H       -1.30920111      -0.69710938       0.95774578
H       -1.23877691      -0.71714867      -0.91500960
H        1.30139218      -0.75174112      -0.89280821
H        1.23069168      -0.63974088       0.88181321
7
Properties=species:S:1:pos:R:3 C2H4O=T energy=-4181.764945393823 dipole="-0.0 -0.385055797266779 -0.0" pbc="F F F"
O       -0.09024406       0.68554719       0.00240436
C       -0.71590346      -0.49223632       0.03192962
C        0.64581354      -0.45032448      -0.06055081
H       -1.29641474      -0.66590088       0.87695555
H       -1.28305055      -0.61795627      -0.94882081
H        1.30560743      -0.72475620      -0.89348601
H        1.33590130      -0.79185304       0.88013141
7
Properties=species:S:1:pos:R:3 C2H4O=T energy=-4181.764945393823 dipole="-0.0 -0.385055797266779 -0.0" pbc="F F F"
O        0.02885366       0.75677204       0.01855740
C       -0.75908885      -0.44269100      -0.00778386
C        0.78727864      -0.43429945       0.01688013
H       -1.28441678      -0.69265112       0.89834831
H       -1.24410016      -0.68932013      -0.90548748
H        1.36759286      -0.62471462      -0.93627740
H        1.32388357      -0.68867458       0.81806994
7
Properties=species:S:1:pos:R:3 C2H4O=T energy=-4181.764945393823 dipole="-0.0 -0.385055797266779 -0.0" pbc="F F F"
O       -0.05040427       0.67338471      -0.01757556
C       -0.72796867      -0.36319862       0.01634637
C        0.71793451      -0.40555021      -0.11055677
H       -1.25204220      -0.62972755       0.84604691
H       -1.20663507      -0.65134609      -0.94074062
H        1.29546191      -0.55473622      -0.91088291
H        1.27623390      -0.69123885       0.87748395
7
Properties=species:S:1:pos:R:3 C2H4O=T energy=-4181.764945393823 dipole="-0.0 -0.385055797266779 -0.0" pbc="F F F"
O        0.04151684       0.72412012       0.00357842
C       -0.75277246      -0.42307150       0.01668311
C        0.78076654      -0.47252131      -0.01349375
H       -1.31276112      -0.69048547       0.93884124
H       -1.22597334      -0.71437918      -0.87649592
H        1.33160471      -0.64759911      -0.82613643
H        1.22513341      -0.73050355       0.83104016
7
Properties=species:S:1:pos:R:3 C2H4O=T energy=-4181.764945393823 dipole="-0.0 -0.385055797266779 -0.0" pbc="F F F"
O        0.07480227       0.79964259      -0.00277912
C       -0.71489116      -0.50329494       0.12228760
C        0.73535060      -0.44155075       0.03628833
H       -1.23977247      -0.65707661       0.88045250
H       -1.24024935      -0.57416969      -0.85270522
H        1.34348215      -0.69383164      -0.96945646
H        1.25753352      -0.66548456       0.97468575
7
Properties=species:S:1:pos:R:3 C2H4O=T energy=-4181.764945393823 dipole="-0.0 -0.385055797266779 -0.0" pbc="F F F"
O       -0.08462318       0.84340183      -0.00790028
C       -0.75023364      -0.49762571      -0.08274283
C        0.77004807      -0.44335459      -0.06449804
H       -1.32857687      -0.68506004       1.00342730
H       -1.27680234      -0.74342806      -0.93226337
H        1.25018664      -0.80311519      -0.92269096
H        1.25227614      -0.63346049       1.01242397
7
Properties=species:S:1:pos:R:3 C2H4O=T energy=-4181.764945393823 dipole="-0.0 -0.385055797266779 -0.0" pbc="F F F"
O        0.05632830       0.75347988      -0.05532619
C       -0.60022160      -0.44405957       0.00069646
C        0.72768329      -0.43711625      -0.00721802
H       -1.29250603      -0.69561376       0.91833856
H       -1.29099401      -0.70391320      -0.91465471
H        1.25107396      -0.59307121      -1.05252471
H        1.31839821      -0.60596655       0.81630666
7
Properties=species:S:1:pos:R:3 C2H4O=T energy=-4181.764945393823 dipole="-0.0 -0.385055797266779 -0.0" pbc="F F F"
O       -0.01713433       0.74835227      -0.07037547
C       -0.76778042      -0.50254928       0.08761352
C        0.77567346      -0.38344274       0.03608360
H       -1.32027552      -0.69449682       0.94444495
H       -1.32492916      -0.63262099      -0.93199249
H        1.24508178      -0.63272286      -0.89776305
H        1.24577456      -0.61030432       0.86592300
7
Properties=species:S:1:pos:R:3 C2H4O=T energy=-4181.764945393823 dipole="-0.0 -0.385055797266779 -0.0" pbc="F F F"
O        0.03079683       0.79657937      -0.01547721
C       -0.71258294      -0.50957617       0.04620135
C        0.71964443      -0.47315664       0.05245046
H       -1.29904011      -0.73869387       0.84214476
H       -1.23352227      -0.73229238      -0.83223651
H        1.15972635      -0.58344804      -0.90942535
H        1.25898721      -0.69551676       0.93993298
7
Properties=species:S:1:pos:R:3 C2H4O=T energy=-4181.764945393823 dipole="-0.0 -0.385055797266779 -0.0" pbc="F F F"
O       -0.00188169       0.82208940       0.00571149
C       -0.72137450      -0.46520110      -0.00284728
C        0.74427963      -0.53252891      -0.06740927
H       -1.22665973      -0.65972754       0.91077705
H       -1.26290107      -0.65089182      -0.94696420
H        1.22490758      -0.65847860      -0.96889486
H        1.28423551      -0.75339999       0.97143395
7
Properties=species:S:1:pos:R:3 C2H4O=T energy=-4181.764945393823 dipole="-0.0 -0.385055797266779 -0.0" pbc="F F F"
O        0.02362992       0.77972580       0.04913466
C       -0.64561587      -0.39630199      -0.09204371
C        0.66491069      -0.47826142       0.00130455
H       -1.23793998      -0.70455800       0.92931456
H       -1.30159192      -0.69884680      -0.99030927
H        1.21766116      -0.73585509      -0.96876988
H        1.31650496      -0.71574075       1.05159527
7
Properties=species:S:1:pos:R:3 C2H4O=T energy=-4181.764945393823 dipole="-0.0 -0.385055797266779 -0.0" pbc="F F F"
O        0.02466595       0.77616612      -0.04291778
C       -0.69387410      -0.47580238       0.00610049
C        0.85689377      -0.45182348       0.05746367
H       -1.29898175      -0.67002023       1.00851625
H       -1.29517112      -0.57764848      -0.88458862
H        1.23569948      -0.63665047      -0.87134850
H        1.29491337      -0.74678205       0.88361931
7
Properties=species:S:1:pos:R:3 C2H4O=T energy=-4181.764945393823 dipole="-0.0 -0.385055797266779 -0.0" pbc="F F F"
O       -0.01237588       0.76320264       0.03103371
C       -0.72000454      -0.51378771       0.01900989
C        0.75941883      -0.41903097       0.05403904
H       -1.22212682      -0.64531181       0.91646793
H       -1.34687082      -0.64679000      -0.90959184
H        1.27740176      -0.73210829      -0.97402905
H        1.31648051      -0.67024857       0.95405120
7
Properties=species:S:1:pos:R:3 C2H4O=T energy=-4181.764945393823 dipole="-0.0 -0.385055797266779 -0.0" pbc="F F F"
O        0.00141597       0.76841212       0.04691430
C       -0.75469183      -0.44221445      -0.02311376
C        0.70716473      -0.46247910       0.01110669
H       -1.28776036      -0.60548300       0.87524585
H       -1.27316635      -0.69025746      -0.84762733
H        1.27365056      -0.61667863      -0.99425424
H        1.27717538      -0.62378927       0.92409037
7
Properties=species:S:1:pos:R:3 C2H4O=T energy=-4181.764945393823 dipole="-0.0 -0.385055797266779 -0.0" pbc="F F F"
O        0.05327407       0.74105989       0.07046748
C       -0.61394468      -0.46516242      -0.02227513
C        0.80155876      -0.36804188      -0.02614300
H       -1.28483227      -0.68236004       0.85275369
H       -1.30975537      -0.71847795      -0.95836610
H        1.26208858      -0.65656012      -0.84245120
H        1.21390517      -0.61905469       0.90927673
7
Properties=species:S:1:pos:R:3 C2H4O=T energy=-4181.764945393823 dipole="-0.0 -0.385055797266779 -0.0" pbc="F F F"
O       -0.00247314       0.80066528      -0.05613599
C       -0.70976910      -0.43869788       0.02462256
C        0.74334797      -0.32425548      -0.03188700
H       -1.29037278      -0.69942784       0.89220236
H       -1.29569213      -0.60882008      -0.84895101
H        1.23528551      -0.70988864      -0.89640544
H        1.23621172      -0.63662422       0.93012232
7
Properties=species:S:1:pos:R:3 C2H4O=T energy=-4181.764945393823 dipole="-0.0 -0.385055797266779 -0.0" pbc="F F F"
O       -0.07578716       0.84429957       0.08979399
C       -0.75952902      -0.46640557       0.01429327
C        0.74561238      -0.41409328       0.10051023
H       -1.27267029      -0.70818567       0.85101026
H       -1.30036927      -0.66992726      -0.83024833
H        1.23794226      -0.65708146      -0.92079736
H        1.32324253      -0.54192419       0.89343273
7
Properties=species:S:1:pos:R:3 C2H4O=T energy=-4181.764945393823 dipole="-0.0 -0.385055797266779 -0.0" pbc="F F F"
O       -0.02447192       0.81913235       0.03409468
C       -0.63655422      -0.41782408      -0.01796460
C        0.75842228      -0.39158531       0.04102411
H       -1.23845923      -0.61493708       0.97844100
H       -1.19471482      -0.63583542      -0.92833212
H        1.27115850      -0.60794541      -0.96082300
H        1.28225654      -0.68793775       0.92141341
7
Properties=species:S:1:pos:R:3 C2H4O=T energy=-4181.764945393823 dipole="-0.0 -0.385055797266779 -0.0" pbc="F F F"
O        0.06392264       0.77647926       0.00232194
C       -0.79688240      -0.40970781       0.03227421
C        0.83705228      -0.46240940       0.01095752
H       -1.25135375      -0.58939815       0.91521144
H       -1.24987169      -0.63787608      -0.91064576
H        1.24150114      -0.65856636      -0.86629463
H        1.21249711      -0.66162233       0.88497013
7
Properties=species:S:1:pos:R:3 C2H4O=T energy=-4181.764945393823 dipole="-0.0 -0.385055797266779 -0.0" pbc="F F F"
O        0.05975238       0.69076496      -0.02794598
C       -0.71002900      -0.36874429      -0.00328751
C        0.70112956      -0.35296264      -0.07240070
H       -1.37376323      -0.64627009       0.89487351
H       -1.31488441      -0.63285309      -0.90778618
H        1.23561889      -0.73228608      -0.87635335
H        1.29633293      -0.67322960       1.01230802
7
Properties=species:S:1:pos:R:3 C2H4O=T energy=-4181.764945393823 dipole="-0.0 -0.385055797266779 -0.0" pbc="F F F"
O       -0.05350419       0.69064805      -0.03459529
C       -0.73116889      -0.43485352      -0.01206180
C        0.74649231      -0.50959746       0.07218823
H       -1.26793049      -0.61240602       0.93711249
H       -1.24098511      -0.63978255      -0.89759079
H        1.29595896      -0.60181323      -0.91015016
H        1.29927306      -0.67275759       0.99198203
7
Properties=species:S:1:pos:R:3 C2H4O=T energy=-4181.764945393823 dipole="-0.0 -0.385055797266779 -0.0" pbc="F F F"
O       -0.03381957       0.85697133      -0.00200779
C       -0.80042835      -0.44061527      -0.03405258
C        0.77092172      -0.47965169      -0.02230917
H       -1.35829997      -0.69088613       0.79878225
H       -1.34301791      -0.63025018      -0.88068621
H        1.28509570      -0.71661967      -0.92236179
H        1.26364274      -0.72618904       0.99514609
7
Properties=species:S:1:pos:R:3 C2H4O=T energy=-4181.764945393823 dipole="-0.0 -0.385055797266779 -0.0" pbc="F F F"
O        0.04386816       0.75587610       0.00134440
C       -0.71847045      -0.54910723      -0.01235887
C        0.69479033      -0.49710149      -0.01405501
H       -1.17393860      -0.63622867       0.89141727
H       -1.23519363      -0.59830314      -0.87374454
H        1.26680434      -0.70061770      -0.88506505
H        1.28349714      -0.62351115       0.95173476
7
Properties=species:S:1:pos:R:3 C2H4O=T energy=-4181.764945393823 dipole="-0.0 -0.385055797266779 -0.0" pbc="F F F"
O        0.05247769       0.74016255       0.06586981
C       -0.71900961      -0.34325745      -0.03445939
C        0.81568773      -0.43712495      -0.03257090
H       -1.28801722      -0.68428818       0.94118452
H       -1.23768100      -0.69695591      -0.92119395
H        1.37093634      -0.58189370      -0.89816004
H        1.26572304      -0.66226924       0.95065207
7
Properties=species:S:1:pos:R:3 C2H4O=T energy=-4181.764945393823 dipole="-0.0 -0.385055797266779 -0.0" pbc="F F F"
O       -0.05113958       0.75405548      -0.08342909
C       -0.70892843      -0.41466069      -0.02415932
C        0.80758888      -0.50830877      -0.07321874
H       -1.25260034      -0.61591589       1.00417260
H       -1.28676698      -0.61433687      -0.92190164
H        1.25519146      -0.62408786      -0.88736008
H        1.18500326      -0.59444379       0.98898074
