7
Properties=species:S:1:pos:R:3 C2H4O=T energy=-4175.278570059272 dipole="-0.0 0.36428559175214825 -0.0" pbc="F F F"
O       -0.02763853       0.41222930      -0.01704349
C       -1.06917283      -0.68465767      -0.03493482
C        1.06643279      -0.66832285      -0.11522157
H       -1.72081858      -0.45526646       0.88188016
H       -1.67995421      -0.44714719      -0.91092599
H        1.66805081      -0.38173183      -0.90488285
H        1.66921869      -0.45891889       0.97007333
7
Properties=species:S:1:pos:R:3 C2H4O=T energy=-4175.278570059272 dipole="-0.0 0.36428559175214825 -0.0" pbc="F F F"
O       -0.02308006       0.35096917      -0.05952152
C       -1.00423022      -0.61857360      -0.06285531
C        0.96203050      -0.72689663       0.05923442
H       -1.56036361      -0.47351607       0.92166142
H       -1.68188577      -0.49359887      -0.96664911
H        1.54505181      -0.40948479      -0.81181731
H        1.58690574      -0.46903708       0.88580298
7
Properties=species:S:1:pos:R:3 C2H4O=T energy=-4175.278570059272 dipole="-0.0 0.36428559175214825 -0.0" pbc="F F F"
O        0.04589114       0.29542390       0.02679614
C       -1.05797473      -0.59462730       0.06423820
C        1.01699773      -0.63275516       0.01133446
H       -1.65919436      -0.52122195       0.88546422
H       -1.54931337      -0.48622600      -0.87147258
H        1.62122195      -0.55098735      -0.91233499
H        1.72455528      -0.45940263       0.95895972
7
Properties=species:S:1:pos:R:3 C2H4O=T energy=-4175.278570059272 dipole="-0.0 0.36428559175214825 -0.0" pbc="F F F"
O        0.05283402       0.28694677      -0.00705038
C       -1.04023269      -0.67967295      -0.02570770
C        0.99273629      -0.61966088      -0.10484189
H       -1.66350929      -0.42627800       0.92237701
H       -1.70987379      -0.54628968      -0.92723494
H        1.73334673      -0.44361950      -0.93529784
H        1.67704745      -0.53334956       0.93144158
7
Properties=species:S:1:pos:R:3 C2H4O=T energy=-4175.278570059272 dipole="-0.0 0.36428559175214825 -0.0" pbc="F F F"
O       -0.06754164       0.32436931       0.02452558
C       -1.08705345      -0.69301913      -0.12448238
C        1.05538531      -0.61123975       0.01426758
H       -1.61287356      -0.60379695       0.87167844
H       -1.59057114      -0.48447903      -0.88467668
H        1.61633209      -0.42302329      -0.91912192
H        1.53174570      -0.42077208       0.86599615
7
Properties=species:S:1:pos:R:3 C2H4O=T energy=-4175.278570059272 dipole="-0.0 0.36428559175214825 -0.0" pbc="F F F"
O       -0.05745926       0.30762874      -0.02613548
C       -0.98920606      -0.67214374      -0.00165809
C        1.05630628      -0.62819506      -0.05155982
H       -1.64411566      -0.37457021       0.89786566
H       -1.68388503      -0.46752073      -0.90648459
H        1.62944228      -0.45467639      -0.89979350
H        1.61638448      -0.54643230       0.87492389
7
Properties=species:S:1:pos:R:3 C2H4O=T energy=-4175.278570059272 dipole="-0.0 0.36428559175214825 -0.0" pbc="F F F"
O       -0.02454906       0.33860861       0.03532839
C       -1.02017755      -0.58445456      -0.04540968
C        1.06260024      -0.65115186      -0.09281316
H       -1.58367420      -0.43315373       0.91162365
H       -1.62477911      -0.45835871      -0.79195500
H        1.62861970      -0.46309796      -0.96606877
H        1.64236859      -0.39390462       0.91594466
7
Properties=species:S:1:pos:R:3 C2H4O=T energy=-4175.278570059272 dipole="-0.0 0.36428559175214825 -0.0" pbc="F F F"
O        0.00769736       0.32791646      -0.02401742
C       -1.03833650      -0.59176405      -0.05035855
C        1.02769741      -0.63054076      -0.01334507
H       -1.67135197      -0.54594863       0.94165431
H       -1.62569875      -0.43359920      -0.94195660
H        1.66745337      -0.44056973      -0.93903720
H        1.54839094      -0.47498327       0.95114165
7
Properties=species:S:1:pos:R:3 C2H4O=T energy=-4175.278570059272 dipole="-0.0 0.36428559175214825 -0.0" pbc="F F F"
O       -0.04117320       0.31358298       0.01220611
C       -1.03905774      -0.78901141       0.04704621
C        1.01395783      -0.67671981      -0.05396790
H       -1.64585140      -0.51777348       0.88132951
H       -1.57397938      -0.42322635      -0.94483129
H        1.65563581      -0.48845358      -0.95457601
H        1.66131616      -0.48688712       0.97319322
7
Properties=species:S:1:pos:R:3 C2H4O=T energy=-4175.278570059272 dipole="-0.0 0.36428559175214825 -0.0" pbc="F F F"
O        0.02856171       0.35522648      -0.00756091
C       -1.03255439      -0.63958490      -0.08761384
C        1.02786327      -0.55856765       0.04308789
H       -1.70350645      -0.43760151       0.91286566
H       -1.62936505      -0.51216363      -0.93305629
H        1.51004031      -0.51231459      -0.94951922
H        1.61253905      -0.47769888       0.97185691
7
Properties=species:S:1:pos:R:3 C2H4O=T energy=-4175.278570059272 dipole="-0.0 0.36428559175214825 -0.0" pbc="F F F"
O       -0.06622767       0.26894217      -0.03523258
C       -1.02609023      -0.53537075      -0.06593273
C        0.94109272      -0.68417455      -0.07178516
H       -1.60998802      -0.50716218       0.86999976
H       -1.63132185      -0.49229962      -0.91934240
H        1.66167418      -0.42309127      -0.89543163
H        1.69716105      -0.42240957       0.87464940
7
Properties=species:S:1:pos:R:3 C2H4O=T energy=-4175.278570059272 dipole="-0.0 0.36428559175214825 -0.0" pbc="F F F"
O        0.07844522       0.28310171       0.04613311
C       -0.94963999      -0.59671819      -0.01686695
C        1.01231622      -0.58022518       0.08747235
H       -1.63207048      -0.49040827       0.93414126
H       -1.69838373      -0.44752964      -0.79241374
H        1.74061498      -0.48911023      -0.85513434
H        1.62695505      -0.46421080       0.88483441
7
Properties=species:S:1:pos:R:3 C2H4O=T energy=-4175.278570059272 dipole="-0.0 0.36428559175214825 -0.0" pbc="F F F"
O       -0.05618490       0.36213940       0.02942531
C       -1.01828928      -0.65846427       0.03356706
C        1.06645862      -0.63347496      -0.04517896
H       -1.78137642      -0.49199868       0.91032311
H       -1.66982565      -0.37951215      -0.84433709
H        1.65262508      -0.46690891      -0.88383103
H        1.63884380      -0.40830995       0.87648774
7
Properties=species:S:1:pos:R:3 C2H4O=T energy=-4175.278570059272 dipole="-0.0 0.36428559175214825 -0.0" pbc="F F F"
O       -0.00275729       0.37812226      -0.01496820
C       -1.08245473      -0.62414597       0.04422335
C        1.06948870      -0.60990378       0.07042076
H       -1.59542407      -0.36289483       0.95102579
H       -1.62644619      -0.47550256      -0.92772179
H        1.56829085      -0.43935289      -0.83151527
H        1.67590909      -0.50674783       0.98728347
7
Properties=species:S:1:pos:R:3 C2H4O=T energy=-4175.278570059272 dipole="-0.0 0.36428559175214825 -0.0" pbc="F F F"
O        0.02356122       0.23466129       0.01544862
C       -1.00191305      -0.60798898      -0.04583112
C        0.92419276      -0.66135266      -0.10045058
H       -1.63531209      -0.35973470       0.85306229
H       -1.70852195      -0.41938660      -0.74418570
H        1.64390166      -0.45102728      -0.87020038
H        1.53677995      -0.40378883       0.92282652
7
Properties=species:S:1:pos:R:3 C2H4O=T energy=-4175.278570059272 dipole="-0.0 0.36428559175214825 -0.0" pbc="F F F"
O       -0.05018985       0.35501530      -0.06198830
C       -0.99429689      -0.68495927      -0.06727498
C        1.09356084      -0.57501727      -0.01527570
H       -1.62934455      -0.50324522       0.84484478
H       -1.68198927      -0.43715871      -0.90934781
H        1.66993685      -0.43098490      -1.00658432
H        1.62679687      -0.46965361       0.79154617
7
Properties=species:S:1:pos:R:3 C2H4O=T energy=-4175.278570059272 dipole="-0.0 0.36428559175214825 -0.0" pbc="F F F"
O       -0.02705700       0.30207747      -0.04773403
C       -1.07025888      -0.58234438       0.05529168
C        0.97552689      -0.74105670       0.00986476
H       -1.62994383      -0.48019954       0.85552146
H       -1.64417957      -0.41826215      -0.96369844
H        1.60322165      -0.55164129      -0.92890616
H        1.70180296      -0.41962437       0.95686524
7
Properties=species:S:1:pos:R:3 C2H4O=T energy=-4175.278570059272 dipole="-0.0 0.36428559175214825 -0.0" pbc="F F F"
O       -0.10112082       0.35897830       0.01309688
C       -1.02700165      -0.69046816       0.00483003
C        1.04561465      -0.71674242       0.01946481
H       -1.62270452      -0.45544460       0.80197435
H       -1.71784898      -0.57926182      -0.86880313
H        1.72985746      -0.39795226      -0.78980624
H        1.59719116      -0.48070580       0.92980897
7
Properties=species:S:1:pos:R:3 C2H4O=T energy=-4175.278570059272 dipole="-0.0 0.36428559175214825 -0.0" pbc="F F F"
O        0.02928324       0.28170385      -0.05973177
C       -0.95423241      -0.63118892      -0.01143731
C        1.07219302      -0.60961429      -0.02023594
H       -1.68659127      -0.46592699       0.95399478
H       -1.62525397      -0.49126759      -0.89068906
H        1.73985299      -0.34205629      -0.80158573
H        1.67578593      -0.31948358       0.86184509
7
Properties=species:S:1:pos:R:3 C2H4O=T energy=-4175.278570059272 dipole="-0.0 0.36428559175214825 -0.0" pbc="F F F"
O        0.00434926       0.29649515       0.00864320
C       -0.99703948      -0.56593618      -0.01257524
C        1.06355862      -0.63372118       0.14251342
H       -1.74521951      -0.40851291       0.91863967
H       -1.61565699      -0.41555542      -0.90137133
H        1.63210918      -0.55519128      -0.86381499
H        1.71910237      -0.43774054       0.90652889
7
Properties=species:S:1:pos:R:3 C2H4O=T energy=-4175.278570059272 dipole="-0.0 0.36428559175214825 -0.0" pbc="F F F"
O       -0.06105886       0.26224140       0.03149167
C       -0.93332150      -0.61361358       0.01333077
C        1.02485965      -0.71149518       0.01218353
H       -1.64586623      -0.47169428       0.86487193
H       -1.57904635      -0.50065569      -0.89983011
H        1.71712904      -0.53464947      -0.86369789
H        1.60604441      -0.48122967       0.90749645
7
Properties=species:S:1:pos:R:3 C2H4O=T energy=-4175.278570059272 dipole="-0.0 0.36428559175214825 -0.0" pbc="F F F"
O       -0.05310315       0.26808139      -0.06914577
C       -1.04646265      -0.68771688       0.07514370
C        1.01127196      -0.67991706      -0.01191159
H       -1.60182665      -0.46009820       0.87977580
H       -1.62003790      -0.40595967      -0.95409600
H        1.64261811      -0.48996294      -0.89781108
H        1.66738036      -0.38753154       0.84941926
7
Properties=species:S:1:pos:R:3 C2H4O=T energy=-4175.278570059272 dipole="-0.0 0.36428559175214825 -0.0" pbc="F F F"
O       -0.03672552       0.37509894      -0.01465706
C       -1.02063528      -0.57094942      -0.02015145
C        1.04949898      -0.68428351       0.00239090
H       -1.61639908      -0.41369078       0.87092995
H       -1.71421977      -0.46692517      -0.85229347
H        1.62078859      -0.37780662      -0.95222875
H        1.59514186      -0.47651851       0.84632252
7
Properties=species:S:1:pos:R:3 C2H4O=T energy=-4175.278570059272 dipole="-0.0 0.36428559175214825 -0.0" pbc="F F F"
O        0.07571841       0.27921674      -0.00813289
C       -1.06436756      -0.57081977       0.02678777
C        1.02675564      -0.67047007       0.04223833
H       -1.63480826      -0.49510227       0.88345585
H       -1.69527144      -0.39257652      -0.93801182
H        1.68149720      -0.44338081      -0.93569172
H        1.54509071      -0.47319492       0.88015493
7
Properties=species:S:1:pos:R:3 C2H4O=T energy=-4175.278570059272 dipole="-0.0 0.36428559175214825 -0.0" pbc="F F F"
O       -0.00796230       0.31077632       0.05299282
C       -1.01027920      -0.75040535      -0.04391321
C        0.90940295      -0.61269185      -0.02266870
H       -1.75164478      -0.46942893       0.86107900
H       -1.58123207      -0.47168967      -0.86709716
H        1.65687933      -0.56237216      -0.87296200
H        1.63412233      -0.48580975       0.86816503
7
Properties=species:S:1:pos:R:3 C2H4O=T energy=-4175.278570059272 dipole="-0.0 0.36428559175214825 -0.0" pbc="F F F"
O       -0.03443159       0.31748503       0.00624429
C       -0.99550558      -0.56627127      -0.07921244
C        1.03081911      -0.61153287      -0.01860666
H       -1.57249051      -0.41012516       0.89303129
H       -1.57263586      -0.38821877      -0.83796003
H        1.73019608      -0.50144653      -0.83738353
H        1.63726391      -0.57511604       0.93181638
7
Properties=species:S:1:pos:R:3 C2H4O=T energy=-4175.278570059272 dipole="-0.0 0.36428559175214825 -0.0" pbc="F F F"
O        0.04430487       0.33548246      -0.06464817
C       -1.06322961      -0.67277840       0.05968399
C        1.00435216      -0.63566152       0.00411191
H       -1.69750954      -0.56779897       0.83488801
H       -1.64929180      -0.42086704      -0.87533165
H        1.60747950      -0.50096049      -0.84419817
H        1.62091469      -0.53009652       0.84708160
7
Properties=species:S:1:pos:R:3 C2H4O=T energy=-4175.278570059272 dipole="-0.0 0.36428559175214825 -0.0" pbc="F F F"
O       -0.03282324       0.37166999       0.04751812
C       -1.05266371      -0.67545348      -0.04509729
C        1.03421509      -0.61821055      -0.00982600
H       -1.66976611      -0.34376207       0.89936115
H       -1.71282511      -0.40182120      -0.94362848
H        1.66589556      -0.43850012      -0.86898953
H        1.63509409      -0.39125579       0.97474438
7
Properties=species:S:1:pos:R:3 C2H4O=T energy=-4175.278570059272 dipole="-0.0 0.36428559175214825 -0.0" pbc="F F F"
O        0.05659858       0.31483475      -0.04449481
C       -1.06119167      -0.66176485      -0.04319882
C        0.99013637      -0.62005347       0.09070272
H       -1.69133837      -0.50977561       0.85186026
H       -1.70436456      -0.41153331      -0.84522576
H        1.71930218      -0.47031467      -0.86842058
H        1.57970715      -0.43860740       0.91816306
7
Properties=species:S:1:pos:R:3 C2H4O=T energy=-4175.278570059272 dipole="-0.0 0.36428559175214825 -0.0" pbc="F F F"
O        0.03605379       0.34424703      -0.03190866
C       -1.01814425      -0.67883406       0.06032921
C        1.01591755      -0.61532550      -0.00063857
H       -1.64580231      -0.42395371       0.83636147
H       -1.63770255      -0.45669035      -0.90316354
H        1.61699039      -0.50547988      -0.95994262
H        1.68747257      -0.37283002       0.79434837
7
Properties=species:S:1:pos:R:3 C2H4O=T energy=-4175.278570059272 dipole="-0.0 0.36428559175214825 -0.0" pbc="F F F"
O        0.04040491       0.28083272      -0.03962139
C       -1.01508423      -0.63666937      -0.09929829
C        1.05907498      -0.61991383       0.09387203
H       -1.69149663      -0.45657377       0.84801590
H       -1.65229015      -0.45236214      -0.83996166
H        1.64905197      -0.51145673      -0.88457648
H        1.51681723      -0.57416919       1.00308470
7
Properties=species:S:1:pos:R:3 C2H4O=T energy=-4175.278570059272 dipole="-0.0 0.36428559175214825 -0.0" pbc="F F F"
O       -0.03602518       0.26960972      -0.02985591
C       -1.01025369      -0.71249592      -0.02193679
C        0.97751899      -0.57438373      -0.04157912
H       -1.58345538      -0.45938762       0.91679953
H       -1.59750214      -0.43382000      -0.95576925
H        1.58991667      -0.46915583      -0.90923414
H        1.67164688      -0.35702224       0.75864831
7
Properties=species:S:1:pos:R:3 C2H4O=T energy=-4175.278570059272 dipole="-0.0 0.36428559175214825 -0.0" pbc="F F F"
O        0.02530178       0.39426841      -0.08199098
C       -0.99360067      -0.73991152      -0.01665829
C        1.13704856      -0.68099467      -0.06323261
H       -1.68200385      -0.44089656       0.96965473
H       -1.56240252      -0.46406237      -0.93476218
H        1.66816645      -0.47497360      -0.84023490
H        1.62268742      -0.49477451       0.92406716
7
Properties=species:S:1:pos:R:3 C2H4O=T energy=-4175.278570059272 dipole="-0.0 0.36428559175214825 -0.0" pbc="F F F"
O        0.00649522       0.21258426      -0.06462903
C       -1.03631465      -0.62509033       0.05916530
C        0.97254385      -0.58765583       0.04142967
H       -1.70642285      -0.53233153       0.91285715
H       -1.54038656      -0.44075199      -0.88673254
H        1.70248463      -0.42457059      -0.81666349
H        1.75428657      -0.36095666       0.88576831
7
Properties=species:S:1:pos:R:3 C2H4O=T energy=-4175.278570059272 dipole="-0.0 0.36428559175214825 -0.0" pbc="F F F"
O       -0.00773008       0.33098242       0.05444332
C       -0.89060208      -0.68361109       0.03008757
C        1.02520960      -0.53903612       0.01380156
H       -1.60309530      -0.56357561       0.96814898
H       -1.62688141      -0.44439189      -0.80594603
H        1.59317384      -0.45006919      -0.94279391
H        1.64557679      -0.45208917       0.85946130
7
Properties=species:S:1:pos:R:3 C2H4O=T energy=-4175.278570059272 dipole="-0.0 0.36428559175214825 -0.0" pbc="F F F"
O       -0.01394234       0.32957139       0.06305757
C       -0.93118541      -0.71627125      -0.01230615
C        1.00322890      -0.60709089      -0.07438668
H       -1.61338022      -0.38279024       0.79368321
H       -1.70465840      -0.43333312      -0.92933821
H        1.64349855      -0.46917485      -0.87637284
H        1.64440683      -0.49426314       0.84934441
7
Properties=species:S:1:pos:R:3 C2H4O=T energy=-4175.278570059272 dipole="-0.0 0.36428559175214825 -0.0" pbc="F F F"
O        0.08070889       0.31477903      -0.02075332
C       -1.08186085      -0.63661617       0.04815042
C        1.04245550      -0.63457226      -0.08980040
H       -1.71458742      -0.33966835       0.98002905
H       -1.66049908      -0.55242359      -0.85436883
H        1.68942745      -0.43826391      -0.87948405
H        1.60720194      -0.47489810       0.94896850
7
Properties=species:S:1:pos:R:3 C2H4O=T energy=-4175.278570059272 dipole="-0.0 0.36428559175214825 -0.0" pbc="F F F"
O       -0.03724609       0.33665343      -0.00510246
C       -1.00051335      -0.67597194       0.07891054
C        1.01057250      -0.59563771       0.03551397
H       -1.72172708      -0.48826368       0.84300946
H       -1.59039697      -0.54572012      -0.87579407
H        1.59484377      -0.35605596      -0.90430522
H        1.58211898      -0.45775526       0.87596816
7
Properties=species:S:1:pos:R:3 C2H4O=T energy=-4175.278570059272 dipole="-0.0 0.36428559175214825 -0.0" pbc="F F F"
O        0.11351232       0.33319688      -0.00169604
C       -1.01650712      -0.67856284       0.06852287
C        1.04899323      -0.66676263       0.03759002
H       -1.62759265      -0.50113093       0.89116347
H       -1.60824467      -0.41041817      -0.88896357
H        1.61942179      -0.48237800      -0.91844644
H        1.57688349      -0.43103375       0.93817485
7
Properties=species:S:1:pos:R:3 C2H4O=T energy=-4175.278570059272 dipole="-0.0 0.36428559175214825 -0.0" pbc="F F F"
O       -0.02598635       0.24798974       0.04384482
C       -1.03023818      -0.65650457       0.06283064
C        1.02101294      -0.69503553       0.02372771
H       -1.54221612      -0.50715807       0.93971183
H       -1.65059713      -0.52859617      -0.87376577
H        1.64076817      -0.40961494      -0.91617474
H        1.66980088      -0.49602220       0.91316799
7
Properties=species:S:1:pos:R:3 C2H4O=T energy=-4175.278570059272 dipole="-0.0 0.36428559175214825 -0.0" pbc="F F F"
O        0.01502193       0.23450495       0.08962139
C       -1.06054990      -0.68647922       0.03256076
C        1.06487992      -0.61347553      -0.02587910
H       -1.64382202      -0.45053793       0.85882287
H       -1.62652149      -0.47299609      -0.85911928
H        1.72006388      -0.47836909      -0.79627417
H        1.64676663      -0.51548983       0.87619724
7
Properties=species:S:1:pos:R:3 C2H4O=T energy=-4175.278570059272 dipole="-0.0 0.36428559175214825 -0.0" pbc="F F F"
O       -0.08509354       0.28327308      -0.01637660
C       -0.99464371      -0.65540648       0.03968999
C        1.04167386      -0.61888798       0.01100936
H       -1.70738579      -0.48131285       0.93103312
H       -1.63923686      -0.45846519      -0.83722361
H        1.58876112      -0.47670764      -0.93774353
H        1.66859750      -0.43736588       0.99034481
7
Properties=species:S:1:pos:R:3 C2H4O=T energy=-4175.278570059272 dipole="-0.0 0.36428559175214825 -0.0" pbc="F F F"
O        0.04946181       0.29057189      -0.08372355
C       -1.04491467      -0.68302878      -0.18869335
C        1.01715297      -0.65213142      -0.01919536
H       -1.69570228      -0.47039570       0.99439541
H       -1.63817174      -0.47505508      -0.89623852
H        1.61805517      -0.51793365      -0.94611211
H        1.60352156      -0.36658748       0.89575866
7
Properties=species:S:1:pos:R:3 C2H4O=T energy=-4175.278570059272 dipole="-0.0 0.36428559175214825 -0.0" pbc="F F F"
O        0.03499740       0.36602862       0.03776697
C       -1.03369077      -0.64888907       0.05487282
C        0.98661757      -0.56368765      -0.00575813
H       -1.74628169      -0.51724355       0.91209254
H       -1.63447212      -0.35126427      -0.88673820
H        1.68701003      -0.46895328      -0.86478617
H        1.51345853      -0.38142600       0.87619416
7
Properties=species:S:1:pos:R:3 C2H4O=T energy=-4175.278570059272 dipole="-0.0 0.36428559175214825 -0.0" pbc="F F F"
O       -0.07367012       0.34891824      -0.00600229
C       -1.01286667      -0.66875862      -0.08009064
C        1.06305406      -0.58400363       0.01368383
H       -1.57812520      -0.50143770       0.85410279
H       -1.61351839      -0.54412224      -0.86495681
H        1.63693023      -0.51098115      -0.87576209
H        1.57571147      -0.39420230       0.90069012
7
Properties=species:S:1:pos:R:3 C2H4O=T energy=-4175.278570059272 dipole="-0.0 0.36428559175214825 -0.0" pbc="F F F"
O        0.03009002       0.35361734      -0.01249309
C       -1.01552962      -0.59891589      -0.07496665
C        0.96980308      -0.63976520       0.04739425
H       -1.62135409      -0.39660530       0.86743212
H       -1.53405726      -0.40938850      -0.95455593
H        1.74786970      -0.43128377      -0.90760138
H        1.61682472      -0.47144415       0.85058893
7
Properties=species:S:1:pos:R:3 C2H4O=T energy=-4175.278570059272 dipole="-0.0 0.36428559175214825 -0.0" pbc="F F F"
O        0.00934579       0.26420102       0.01897687
C       -1.11741933      -0.63069826       0.00496092
C        1.07117258      -0.52270903       0.09335914
H       -1.72658801      -0.44850107       0.90505329
H       -1.61606087      -0.38874865      -1.01043451
H        1.63441900      -0.45480260      -0.97119300
H        1.54386077      -0.49305397       0.99723995
7
Properties=species:S:1:pos:R:3 C2H4O=T energy=-4175.278570059272 dipole="-0.0 0.36428559175214825 -0.0" pbc="F F F"
O       -0.02743631       0.25359999      -0.00333250
C       -0.93336804      -0.60561852      -0.00373220
C        1.07223342      -0.65372861      -0.00565845
H       -1.64979207      -0.46272617       0.92866933
H       -1.69882339      -0.50378377      -0.89681459
H        1.60540853      -0.44302825      -0.93978695
H        1.69862622      -0.48387615       0.87357056
7
Properties=species:S:1:pos:R:3 C2H4O=T energy=-4175.278570059272 dipole="-0.0 0.36428559175214825 -0.0" pbc="F F F"
O        0.04615606       0.32275060      -0.02694324
C       -1.04498665      -0.64904044       0.01188795
C        1.07689192      -0.68652839      -0.03294120
H       -1.59951025      -0.41964945       0.87155871
H       -1.65474986      -0.38947791      -0.92257360
H        1.68602300      -0.43630479      -0.87506799
H        1.64679960      -0.44461399       0.96802239
7
Properties=species:S:1:pos:R:3 C2H4O=T energy=-4175.278570059272 dipole="-0.0 0.36428559175214825 -0.0" pbc="F F F"
O        0.07098969       0.30936432      -0.02845114
C       -1.03871998      -0.69693549      -0.02138496
C        1.05105199      -0.71318706      -0.06167311
H       -1.69794193      -0.53820959       0.87261725
H       -1.61034760      -0.47914664      -0.90348975
H        1.67954986      -0.51574436      -0.89763667
H        1.55452959      -0.50079581       0.89669349
