7
Properties=species:S:1:pos:R:3 C2H4O=T energy=-4181.764945393823 dipole="-0.0 -0.385055797266779 -0.0" pbc="F F F"
O       -0.04756489       0.85536290      -0.05709124
C       -0.69335185      -0.42147296       0.05745147
C        0.70196653      -0.48385274      -0.00379982
H       -1.22138204      -0.63578165       0.89141564
H       -1.30953069      -0.67444690      -0.90589454
H        1.30360342      -0.65930114      -0.85987588
H        1.28241364      -0.68277499       0.93915472
7
Properties=species:S:1:pos:R:3 C2H4O=T energy=-4181.764945393823 dipole="-0.0 -0.385055797266779 -0.0" pbc="F F F"
O        0.03014859       0.75735882      -0.10061141
C       -0.74510938      -0.43479315       0.00086163
C        0.73533599      -0.51832003       0.01028666
H       -1.27294446      -0.58642621       0.90820300
H       -1.35705425      -0.52904078      -0.96986773
H        1.20644861      -0.59536813      -0.91283258
H        1.27073809      -0.59939374       0.83799652
7
Properties=species:S:1:pos:R:3 C2H4O=T energy=-4181.764945393823 dipole="-0.0 -0.385055797266779 -0.0" pbc="F F F"
O        0.04739442       0.66919092       0.01730040
C       -0.75457624      -0.51040504      -0.03007733
C        0.78915930      -0.41851219      -0.05761231
H       -1.31963534      -0.69667555       0.89569472
H       -1.24774619      -0.67814711      -0.87017948
H        1.24634799      -0.75294218      -0.97640888
H        1.37392861      -0.74418633       0.81185405
7
Properties=species:S:1:pos:R:3 C2H4O=T energy=-4181.764945393823 dipole="-0.0 -0.385055797266779 -0.0" pbc="F F F"
O        0.00668061       0.80706318       0.11052926
C       -0.78246562      -0.44302281      -0.04595741
C        0.76386466      -0.49263590      -0.04326755
H       -1.29033052      -0.66150460       0.94179238
H       -1.31909519      -0.72054616      -0.89138436
H        1.18990501      -0.67171614      -0.93370124
H        1.28097406      -0.74038365       0.92277564
7
Properties=species:S:1:pos:R:3 C2H4O=T energy=-4181.764945393823 dipole="-0.0 -0.385055797266779 -0.0" pbc="F F F"
O        0.14070546       0.83049573      -0.01061487
C       -0.66625850      -0.41008681       0.06609149
C        0.66186327      -0.38542887      -0.05996565
H       -1.13639511      -0.58761275       1.00694436
H       -1.26156348      -0.65019423      -0.83884739
H        1.26357291      -0.63188525      -0.86451399
H        1.27592874      -0.68248412       0.99956308
7
Properties=species:S:1:pos:R:3 C2H4O=T energy=-4181.764945393823 dipole="-0.0 -0.385055797266779 -0.0" pbc="F F F"
O       -0.01266832       0.78837995       0.02472698
C       -0.74216486      -0.45189870       0.04653618
C        0.70930939      -0.49580046      -0.01913887
H       -1.26272505      -0.72415273       0.93842766
H       -1.26266261      -0.65982859      -0.87164201
H        1.29721773      -0.65739935      -0.84330321
H        1.25789192      -0.55450102       0.96030036
7
Properties=species:S:1:pos:R:3 C2H4O=T energy=-4181.764945393823 dipole="-0.0 -0.385055797266779 -0.0" pbc="F F F"
O        0.00097859       0.80960168       0.03135716
C       -0.78012818      -0.38874447       0.00385218
C        0.71486028      -0.38759780       0.02283686
H       -1.32426772      -0.58041798       0.97309478
H       -1.33824151      -0.69604187      -0.97401987
H        1.18052106      -0.50715485      -0.90653270
H        1.32644392      -0.68702380       1.00140841
7
Properties=species:S:1:pos:R:3 C2H4O=T energy=-4181.764945393823 dipole="-0.0 -0.385055797266779 -0.0" pbc="F F F"
O        0.02114017       0.76931284       0.07426979
C       -0.81632228      -0.55412244       0.03822768
C        0.77568231      -0.49189248       0.06550693
H       -1.27098594      -0.55139891       0.88092647
H       -1.34429909      -0.67191146      -0.99995325
H        1.33939167      -0.65001749      -0.90823242
H        1.25768122      -0.63503666       0.84143812
7
Properties=species:S:1:pos:R:3 C2H4O=T energy=-4181.764945393823 dipole="-0.0 -0.385055797266779 -0.0" pbc="F F F"
O        0.01870791       0.79303380      -0.03120949
C       -0.79392730      -0.41247106      -0.04014381
C        0.80721509      -0.49642860      -0.04629933
H       -1.28259638      -0.66309725       0.85191641
H       -1.35678180      -0.61799486      -0.81335807
H        1.37620091      -0.62674388      -0.97758962
H        1.29452889      -0.64810604       0.90235104
7
Properties=species:S:1:pos:R:3 C2H4O=T energy=-4181.764945393823 dipole="-0.0 -0.385055797266779 -0.0" pbc="F F F"
O       -0.02346745       0.85667633       0.01697426
C       -0.72480385      -0.46284579      -0.05965840
C        0.71356415      -0.48530931      -0.04246762
H       -1.19270928      -0.59433731       0.89687171
H       -1.23570146      -0.67880920      -0.95965031
H        1.26720021      -0.68230057      -0.86994010
H        1.30098961      -0.65080746       0.88776737
7
Properties=species:S:1:pos:R:3 C2H4O=T energy=-4181.764945393823 dipole="-0.0 -0.385055797266779 -0.0" pbc="F F F"
O        0.01749151       0.71959618      -0.00265550
C       -0.76732141      -0.39637430      -0.01537734
C        0.77461758      -0.41169293      -0.04417250
H       -1.29581969      -0.69806469       0.90365131
H       -1.29699749      -0.67186269      -0.96331541
H        1.36746978      -0.77400303      -0.90652401
H        1.21926532      -0.67911573       0.91804888
7
Properties=species:S:1:pos:R:3 C2H4O=T energy=-4181.764945393823 dipole="-0.0 -0.385055797266779 -0.0" pbc="F F F"
O        0.03766506       0.76545065      -0.02860908
C       -0.68322836      -0.38100838       0.03538229
C        0.70775931      -0.42334615       0.03944506
H       -1.33393872      -0.71670587       0.94372524
H       -1.30815741      -0.64184079      -0.95952881
H        1.26679719      -0.68759559      -0.97944480
H        1.25513397      -0.67417901       0.88654029
7
Properties=species:S:1:pos:R:3 C2H4O=T energy=-4181.764945393823 dipole="-0.0 -0.385055797266779 -0.0" pbc="F F F"
O       -0.04794908       0.69765145       0.01492406
C       -0.74108403      -0.48921064       0.09255720
C        0.79114391      -0.40852736       0.02380906
H       -1.24916423      -0.71007162       0.90770538
H       -1.19640873      -0.70338304      -0.91669010
H        1.29907392      -0.67564799      -0.89710164
H        1.32635326      -0.74709378       0.92952223
7
Properties=species:S:1:pos:R:3 C2H4O=T energy=-4181.764945393823 dipole="-0.0 -0.385055797266779 -0.0" pbc="F F F"
O       -0.07472781       0.70306280       0.00988428
C       -0.69235166      -0.51143959       0.10393434
C        0.71448516      -0.41417003       0.01022225
H       -1.27696279      -0.73081889       0.89655001
H       -1.29785378      -0.74101382      -0.86500917
H        1.20718827      -0.71815301      -0.95123059
H        1.26526135      -0.72805560       0.93505608
7
Properties=species:S:1:pos:R:3 C2H4O=T energy=-4181.764945393823 dipole="-0.0 -0.385055797266779 -0.0" pbc="F F F"
O       -0.02738572       0.74437594       0.10659302
C       -0.74221717      -0.38370692       0.02644265
C        0.75948570      -0.42217621       0.00586212
H       -1.25449357      -0.71757049       0.95420872
H       -1.20343843      -0.69207015      -1.06297314
H        1.22689677      -0.58899525      -1.03991852
H        1.28011817      -0.70609664       0.88801411
7
Properties=species:S:1:pos:R:3 C2H4O=T energy=-4181.764945393823 dipole="-0.0 -0.385055797266779 -0.0" pbc="F F F"
O        0.05067002       0.87284618      -0.04618368
C       -0.73334391      -0.46245025       0.00838720
C        0.68149468      -0.37633830      -0.03966889
H       -1.31614975      -0.63331973       0.92665698
H       -1.23662750      -0.63615609      -0.92957921
H        1.18441635      -0.62971031      -0.93081372
H        1.21570611      -0.67463816       0.90887124
7
Properties=species:S:1:pos:R:3 C2H4O=T energy=-4181.764945393823 dipole="-0.0 -0.385055797266779 -0.0" pbc="F F F"
O        0.02101251       0.74938862       0.05743443
C       -0.69434928      -0.53388568       0.01911022
C        0.66979839      -0.45193643      -0.03602017
H       -1.27853405      -0.66465681       0.86753707
H       -1.14942764      -0.64860812      -0.92271842
H        1.28581242      -0.73675811      -0.90402504
H        1.29033562      -0.69033021       0.86210303
7
Properties=species:S:1:pos:R:3 C2H4O=T energy=-4181.764945393823 dipole="-0.0 -0.385055797266779 -0.0" pbc="F F F"
O        0.00343446       0.80545338       0.03667901
C       -0.74669091      -0.45838487      -0.00904004
C        0.68983651      -0.43821272       0.06310633
H       -1.31618139      -0.66137515       0.85958382
H       -1.27356383      -0.72439768      -0.86435300
H        1.30045864      -0.63248114      -0.84365548
H        1.25509553      -0.61291600       0.97466312
7
Properties=species:S:1:pos:R:3 C2H4O=T energy=-4181.764945393823 dipole="-0.0 -0.385055797266779 -0.0" pbc="F F F"
O       -0.12728074       0.81571137      -0.00132766
C       -0.70138388      -0.48833655       0.08226044
C        0.73850749      -0.38011970      -0.04200369
H       -1.25255582      -0.69705030       0.90081789
H       -1.23951095      -0.78855771      -0.93834305
H        1.30722513      -0.62617025      -0.93999413
H        1.23171349      -0.67332654       0.98540499
7
Properties=species:S:1:pos:R:3 C2H4O=T energy=-4181.764945393823 dipole="-0.0 -0.385055797266779 -0.0" pbc="F F F"
O        0.04825723       0.71866842       0.01660034
C       -0.72941779      -0.39850142       0.02305699
C        0.74093330      -0.40401189       0.01575797
H       -1.21578378      -0.58565041       0.93686154
H       -1.32417153      -0.64626237      -0.97704965
H        1.21292859      -0.62020695      -0.87740629
H        1.20620041      -0.67314753       0.87654992
7
Properties=species:S:1:pos:R:3 C2H4O=T energy=-4181.764945393823 dipole="-0.0 -0.385055797266779 -0.0" pbc="F F F"
O       -0.00971529       0.76841674       0.01180323
C       -0.79926547      -0.41315986       0.06562969
C        0.76428895      -0.38728998      -0.05074636
H       -1.24787142      -0.70866819       0.97515089
H       -1.28574125      -0.65506438      -0.95828898
H        1.27746408      -0.64296679      -0.88053265
H        1.30782115      -0.67823174       0.95721834
7
Properties=species:S:1:pos:R:3 C2H4O=T energy=-4181.764945393823 dipole="-0.0 -0.385055797266779 -0.0" pbc="F F F"
O        0.02188832       0.71459132       0.01566165
C       -0.78931567      -0.52865981      -0.02830452
C        0.72899610      -0.49064902      -0.08091580
H       -1.25336602      -0.69304160       0.85945025
H       -1.32215445      -0.67939681      -0.87894556
H        1.32520471      -0.67145295      -0.92980466
H        1.27461224      -0.67734598       0.92140101
7
Properties=species:S:1:pos:R:3 C2H4O=T energy=-4181.764945393823 dipole="-0.0 -0.385055797266779 -0.0" pbc="F F F"
O        0.00489699       0.75925258      -0.01989551
C       -0.74632459      -0.46023227      -0.00297506
C        0.67309825      -0.49069027      -0.10232607
H       -1.34320020      -0.61558738       1.00407261
H       -1.27522687      -0.66141200      -0.89418583
H        1.26408032      -0.62697766      -0.89992232
H        1.23751245      -0.69651269       0.95004533
7
Properties=species:S:1:pos:R:3 C2H4O=T energy=-4181.764945393823 dipole="-0.0 -0.385055797266779 -0.0" pbc="F F F"
O       -0.01143614       0.79756949       0.08529632
C       -0.71242030      -0.42263025       0.02902527
C        0.75431928      -0.44539469       0.01877420
H       -1.21498878      -0.65659674       0.78760980
H       -1.32936365      -0.71870950      -0.95049839
H        1.29753292      -0.70446704      -0.88268083
H        1.21582586      -0.73581033       0.97767580
7
Properties=species:S:1:pos:R:3 C2H4O=T energy=-4181.764945393823 dipole="-0.0 -0.385055797266779 -0.0" pbc="F F F"
O       -0.01834955       0.78414625       0.01247195
C       -0.78116838      -0.36714958      -0.02325015
C        0.73303514      -0.46637122       0.01671664
H       -1.22657159      -0.67469360       0.98354475
H       -1.19054738      -0.61282070      -0.82851562
H        1.24492182      -0.64636303      -0.95295421
H        1.34646668      -0.70903346       0.83798389
7
Properties=species:S:1:pos:R:3 C2H4O=T energy=-4181.764945393823 dipole="-0.0 -0.385055797266779 -0.0" pbc="F F F"
O        0.02247807       0.78722299       0.08396992
C       -0.77381438      -0.44263974      -0.02759835
C        0.75711229      -0.53503095      -0.09306577
H       -1.27860567      -0.70241278       0.94827242
H       -1.17811046      -0.72492981      -1.00160777
H        1.17971018      -0.72584262      -0.84904478
H        1.33489956      -0.71682948       0.99443801
7
Properties=species:S:1:pos:R:3 C2H4O=T energy=-4181.764945393823 dipole="-0.0 -0.385055797266779 -0.0" pbc="F F F"
O        0.02251110       0.73365530      -0.04906241
C       -0.76315577      -0.45483783       0.03709504
C        0.66953483      -0.49867441       0.04052224
H       -1.29880265      -0.66200445       0.86660674
H       -1.21532694      -0.72711355      -0.97420508
H        1.29728681      -0.71649467      -0.87991158
H        1.20760416      -0.63703114       0.88436827
7
Properties=species:S:1:pos:R:3 C2H4O=T energy=-4181.764945393823 dipole="-0.0 -0.385055797266779 -0.0" pbc="F F F"
O        0.05030535       0.82433146       0.02459252
C       -0.77132197      -0.48815667      -0.01869010
C        0.76563862      -0.43215046      -0.01653531
H       -1.20633900      -0.57966535       0.93710005
H       -1.30398073      -0.71988960      -0.92504200
H        1.33842505      -0.58953625      -0.88385771
H        1.29988901      -0.62231062       0.99262827
7
Properties=species:S:1:pos:R:3 C2H4O=T energy=-4181.764945393823 dipole="-0.0 -0.385055797266779 -0.0" pbc="F F F"
O       -0.00494741       0.79469331      -0.08690932
C       -0.72289946      -0.43547743       0.09574028
C        0.77280957      -0.46652986      -0.07102814
H       -1.21339855      -0.76281090       0.95833963
H       -1.26388864      -0.72184368      -0.86629776
H        1.30592738      -0.71375332      -0.85309872
H        1.20698078      -0.64084757       0.91998253
7
Properties=species:S:1:pos:R:3 C2H4O=T energy=-4181.764945393823 dipole="-0.0 -0.385055797266779 -0.0" pbc="F F F"
O       -0.02771401       0.71663973      -0.03700529
C       -0.82014151      -0.41971503      -0.03494161
C        0.75881120      -0.44902602      -0.04664971
H       -1.33830092      -0.67135204       0.98689010
H       -1.21637378      -0.66750600      -0.89294631
H        1.23382944      -0.69633599      -0.92974435
H        1.28652516      -0.71931388       0.87614363
7
Properties=species:S:1:pos:R:3 C2H4O=T energy=-4181.764945393823 dipole="-0.0 -0.385055797266779 -0.0" pbc="F F F"
O       -0.06336995       0.69602617       0.00736354
C       -0.76793887      -0.47855814       0.02823255
C        0.74494702      -0.33862227       0.03476316
H       -1.23692948      -0.66558449       0.99590366
H       -1.28176403      -0.72432633      -0.86377474
H        1.24479093      -0.70016398      -0.93295522
H        1.21124473      -0.63442734       0.97507972
7
Properties=species:S:1:pos:R:3 C2H4O=T energy=-4181.764945393823 dipole="-0.0 -0.385055797266779 -0.0" pbc="F F F"
O       -0.07788787       0.76416917       0.04858305
C       -0.79662873      -0.47205522       0.05215747
C        0.75338287      -0.40742296       0.04861717
H       -1.17639392      -0.69366585       0.94033649
H       -1.29450587      -0.61612538      -0.93289480
H        1.29549884      -0.70663262      -0.86426030
H        1.31583718      -0.75399524       0.87355400
7
Properties=species:S:1:pos:R:3 C2H4O=T energy=-4181.764945393823 dipole="-0.0 -0.385055797266779 -0.0" pbc="F F F"
O       -0.02322696       0.76722412       0.02519586
C       -0.69272111      -0.37147832       0.01585416
C        0.73240818      -0.49618475      -0.10645148
H       -1.23208370      -0.67898732       0.90162481
H       -1.35347325      -0.73567770      -0.91797612
H        1.20839376      -0.65896897      -0.98011618
H        1.31449040      -0.67237809       0.99405495
7
Properties=species:S:1:pos:R:3 C2H4O=T energy=-4181.764945393823 dipole="-0.0 -0.385055797266779 -0.0" pbc="F F F"
O       -0.04024348       0.81409222       0.03052515
C       -0.74320580      -0.39625845       0.00631254
C        0.77129217      -0.41515415       0.00961572
H       -1.28134365      -0.62340763       0.86389061
H       -1.31197577      -0.65561585      -0.97522697
H        1.20544464      -0.69404794      -0.87187159
H        1.32449990      -0.62310092       0.86772937
7
Properties=species:S:1:pos:R:3 C2H4O=T energy=-4181.764945393823 dipole="-0.0 -0.385055797266779 -0.0" pbc="F F F"
O        0.07279095       0.78715239       0.04995020
C       -0.71553030      -0.51524436      -0.07284530
C        0.81172153      -0.45376380       0.06393239
H       -1.30027233      -0.64237146       0.86872369
H       -1.22887254      -0.70383384      -0.90381619
H        1.24927081      -0.64392786      -0.92470856
H        1.23987071      -0.70256872       0.95525605
7
Properties=species:S:1:pos:R:3 C2H4O=T energy=-4181.764945393823 dipole="-0.0 -0.385055797266779 -0.0" pbc="F F F"
O       -0.01555017       0.89978722       0.01952844
C       -0.80928420      -0.39681630       0.00603142
C        0.73132437      -0.42563970       0.04114629
H       -1.23775209      -0.69172103       0.85977829
H       -1.25221774      -0.68602166      -0.88329965
H        1.21730155      -0.63759278      -0.87708748
H        1.28069868      -0.69892543       0.97609554
7
Properties=species:S:1:pos:R:3 C2H4O=T energy=-4181.764945393823 dipole="-0.0 -0.385055797266779 -0.0" pbc="F F F"
O       -0.06260089       0.72932104      -0.03246803
C       -0.62258144      -0.45110293      -0.03158116
C        0.79922396      -0.43314480      -0.02128964
H       -1.29382677      -0.70746511       0.92236951
H       -1.20272233      -0.61966351      -0.89332607
H        1.31211709      -0.69615419      -0.92165542
H        1.26814292      -0.64019786       0.88288129
7
Properties=species:S:1:pos:R:3 C2H4O=T energy=-4181.764945393823 dipole="-0.0 -0.385055797266779 -0.0" pbc="F F F"
O       -0.00063024       0.64883294       0.01494689
C       -0.71370745      -0.52267252       0.01174449
C        0.84673547      -0.41447172       0.00503773
H       -1.23518853      -0.68305859       0.98920098
H       -1.30651980      -0.64714932      -0.92372465
H        1.25647839      -0.68890597      -0.95180811
H        1.22714846      -0.70659996       0.99702737
7
Properties=species:S:1:pos:R:3 C2H4O=T energy=-4181.764945393823 dipole="-0.0 -0.385055797266779 -0.0" pbc="F F F"
O       -0.03567512       0.81222010       0.00273772
C       -0.69733041      -0.30623694       0.07123729
C        0.68883057      -0.51221268       0.04906163
H       -1.29959159      -0.81781167       0.91441886
H       -1.16202776      -0.60865533      -0.86304391
H        1.27539201      -0.71836231      -0.96979953
H        1.17426357      -0.59988251       0.93986468
7
Properties=species:S:1:pos:R:3 C2H4O=T energy=-4181.764945393823 dipole="-0.0 -0.385055797266779 -0.0" pbc="F F F"
O        0.07719207       0.77965084      -0.00732159
C       -0.73215370      -0.40582554      -0.02603649
C        0.72528403      -0.41497265      -0.04045960
H       -1.20573285      -0.69902219       0.93725130
H       -1.33613646      -0.72190356      -0.87460902
H        1.28097040      -0.70058125      -0.90175755
H        1.30157547      -0.66790985       0.96425172
7
Properties=species:S:1:pos:R:3 C2H4O=T energy=-4181.764945393823 dipole="-0.0 -0.385055797266779 -0.0" pbc="F F F"
O        0.02517100       0.75236790      -0.01503017
C       -0.68100900      -0.40467735      -0.01368428
C        0.71348172      -0.39511160       0.03304085
H       -1.22956020      -0.61390679       0.87916806
H       -1.24665917      -0.75800644      -0.84491676
H        1.22189397      -0.64167061      -0.95778054
H        1.33636646      -0.64563779       0.88379178
7
Properties=species:S:1:pos:R:3 C2H4O=T energy=-4181.764945393823 dipole="-0.0 -0.385055797266779 -0.0" pbc="F F F"
O       -0.06842837       0.79216439       0.02287384
C       -0.78716229      -0.48175635       0.05357217
C        0.70863182      -0.40772513      -0.04431719
H       -1.23428663      -0.64280477       0.90835372
H       -1.23817495      -0.75788006      -0.88187550
H        1.21450732      -0.56563782      -0.89822763
H        1.27635800      -0.65700221       0.86684719
7
Properties=species:S:1:pos:R:3 C2H4O=T energy=-4181.764945393823 dipole="-0.0 -0.385055797266779 -0.0" pbc="F F F"
O        0.00026671       0.72296012      -0.01109545
C       -0.77374108      -0.45791011      -0.05291222
C        0.75989037      -0.36549520       0.00501323
H       -1.27968913      -0.60885238       1.00719053
H       -1.25170437      -0.60743585      -0.95691074
H        1.35534813      -0.63532556      -0.85887358
H        1.20668406      -0.65852078       0.94420459
7
Properties=species:S:1:pos:R:3 C2H4O=T energy=-4181.764945393823 dipole="-0.0 -0.385055797266779 -0.0" pbc="F F F"
O        0.04203097       0.75096400      -0.03322755
C       -0.68559600      -0.43795568       0.03273678
C        0.79557643      -0.40470940      -0.07107619
H       -1.29275239      -0.66750669       0.96801114
H       -1.26259151      -0.65850831      -0.92330510
H        1.24339167      -0.63649165      -0.83917722
H        1.24982920      -0.70523113       0.84482224
7
Properties=species:S:1:pos:R:3 C2H4O=T energy=-4181.764945393823 dipole="-0.0 -0.385055797266779 -0.0" pbc="F F F"
O       -0.02736577       0.80656960      -0.04358586
C       -0.69326085      -0.39648555      -0.04932594
C        0.78200615      -0.48632414       0.13125566
H       -1.26798669      -0.69639869       0.99841202
H       -1.23661164      -0.71053430      -0.84958949
H        1.30879634      -0.61970004      -0.90194804
H        1.31736696      -0.65326630       0.94064768
7
Properties=species:S:1:pos:R:3 C2H4O=T energy=-4181.764945393823 dipole="-0.0 -0.385055797266779 -0.0" pbc="F F F"
O       -0.01353900       0.70345665       0.06346855
C       -0.72758634      -0.46956349      -0.02775417
C        0.72055506      -0.37559220       0.02365089
H       -1.32533016      -0.60222201       0.93357659
H       -1.21930708      -0.70478490      -0.97705757
H        1.17666429      -0.72002991      -0.89301724
H        1.24140471      -0.79850574       0.87431182
7
Properties=species:S:1:pos:R:3 C2H4O=T energy=-4181.764945393823 dipole="-0.0 -0.385055797266779 -0.0" pbc="F F F"
O        0.00357360       0.69615349      -0.01537845
C       -0.72979941      -0.40653987      -0.13130950
C        0.71350644      -0.54004165       0.04193553
H       -1.26029002      -0.62835802       1.00711282
H       -1.27518262      -0.69894108      -0.87494262
H        1.31277057      -0.67908350      -0.92550767
H        1.22269764      -0.66289977       0.95281006
7
Properties=species:S:1:pos:R:3 C2H4O=T energy=-4181.764945393823 dipole="-0.0 -0.385055797266779 -0.0" pbc="F F F"
O       -0.05800312       0.85240565       0.03002049
C       -0.71116541      -0.43187148      -0.01305850
C        0.77825720      -0.45449293       0.02118689
H       -1.23130011      -0.68400440       0.87248159
H       -1.19554631      -0.61523897      -1.01638743
H        1.20726065      -0.65427929      -0.86379821
H        1.32417350      -0.71553812       0.99479615
7
Properties=species:S:1:pos:R:3 C2H4O=T energy=-4181.764945393823 dipole="-0.0 -0.385055797266779 -0.0" pbc="F F F"
O       -0.02581630       0.73019306      -0.00115377
C       -0.68349346      -0.41788027       0.06222464
C        0.73859911      -0.47920053      -0.02373705
H       -1.25577301      -0.59278574       0.91909361
H       -1.25414555      -0.66801602      -0.93325697
H        1.32188887      -0.68303065      -0.96093897
H        1.27715293      -0.72632758       0.90751258
7
Properties=species:S:1:pos:R:3 C2H4O=T energy=-4181.764945393823 dipole="-0.0 -0.385055797266779 -0.0" pbc="F F F"
O        0.00310049       0.77948618       0.03924089
C       -0.67923722      -0.37708264      -0.09116508
C        0.80406612      -0.40130985       0.00880975
H       -1.22802298      -0.69064496       0.88774945
H       -1.30584202      -0.71752309      -0.88910978
H        1.23861420      -0.70202693      -0.92739516
H        1.27583253      -0.57140384       0.82918065
