7
Properties=species:S:1:pos:R:3 C2H4O=T energy=-4175.278570059272 dipole="-0.0 0.36428559175214825 -0.0" pbc="F F F"
O        0.02483597       0.29846098       0.03238496
C       -0.95857162      -0.65201141      -0.01170659
C        1.11368301      -0.60193231      -0.02347351
H       -1.61710280      -0.47941244       0.87117069
H       -1.63213147      -0.55190584      -0.98070355
H        1.61611547      -0.50688333      -0.87874465
H        1.59882981      -0.52685643       0.96773893
7
Properties=species:S:1:pos:R:3 C2H4O=T energy=-4175.278570059272 dipole="-0.0 0.36428559175214825 -0.0" pbc="F F F"
O       -0.01128856       0.30875061      -0.07123688
C       -1.06194225      -0.63475761      -0.05754942
C        1.05350727      -0.67033598      -0.01458448
H       -1.67431613      -0.36362765       0.89378232
H       -1.69711513      -0.41511458      -0.95549984
H        1.65467303      -0.55422528      -0.96086632
H        1.65407407      -0.41931791       0.90302490
7
Properties=species:S:1:pos:R:3 C2H4O=T energy=-4175.278570059272 dipole="-0.0 0.36428559175214825 -0.0" pbc="F F F"
O       -0.00578215       0.29031902      -0.07392557
C       -1.07071532      -0.66333568       0.05285637
C        1.05190328      -0.72845606       0.01620441
H       -1.66348491      -0.49008766       0.92504099
H       -1.59267960      -0.40967782      -0.93641854
H        1.62876923      -0.43967860      -0.84567976
H        1.62027230      -0.46552419       0.83913974
7
Properties=species:S:1:pos:R:3 C2H4O=T energy=-4175.278570059272 dipole="-0.0 0.36428559175214825 -0.0" pbc="F F F"
O       -0.05981007       0.34600049       0.06781253
C       -1.03832362      -0.59012710       0.01808206
C        1.00246638      -0.62223427       0.07690204
H       -1.64602210      -0.37800938       0.76346992
H       -1.60313445      -0.45188948      -0.90940803
H        1.64881789      -0.55562022      -0.90544061
H        1.66208664      -0.38234654       0.86854298
7
Properties=species:S:1:pos:R:3 C2H4O=T energy=-4175.278570059272 dipole="-0.0 0.36428559175214825 -0.0" pbc="F F F"
O       -0.04042442       0.28028635       0.04577064
C       -1.01828555      -0.66679175       0.02566363
C        1.03957625      -0.59187180      -0.03510244
H       -1.66061391      -0.47584697       0.82128143
H       -1.62942357      -0.44318907      -0.89420199
H        1.63250049      -0.52701031      -0.91548929
H        1.62709528      -0.49635510       0.88639220
7
Properties=species:S:1:pos:R:3 C2H4O=T energy=-4175.278570059272 dipole="-0.0 0.36428559175214825 -0.0" pbc="F F F"
O        0.02020280       0.39968350       0.00872942
C       -1.02184559      -0.64402604      -0.09593830
C        1.03339668      -0.63729254       0.12316232
H       -1.65384885      -0.44116419       0.89272159
H       -1.70266348      -0.39910069      -0.85686101
H        1.68378145      -0.50171114      -0.82431730
H        1.57413846      -0.42689839       1.00397927
7
Properties=species:S:1:pos:R:3 C2H4O=T energy=-4175.278570059272 dipole="-0.0 0.36428559175214825 -0.0" pbc="F F F"
O       -0.04952656       0.27705931       0.00498310
C       -1.05989689      -0.71783691       0.00342841
C        0.98160718      -0.61662443      -0.04597100
H       -1.56673408      -0.49540422       0.87835410
H       -1.60355372      -0.51778505      -0.88308466
H        1.70958699      -0.53661593      -0.88522533
H        1.65722515      -0.41715010       0.83260895
7
Properties=species:S:1:pos:R:3 C2H4O=T energy=-4175.278570059272 dipole="-0.0 0.36428559175214825 -0.0" pbc="F F F"
O       -0.06602257       0.33147128       0.01484976
C       -1.02219847      -0.62298133      -0.03400098
C        1.04633505      -0.62565043      -0.03571736
H       -1.55094207      -0.43254991       0.83489201
H       -1.61140190      -0.50497591      -0.85510343
H        1.70215963      -0.49727589      -0.84628821
H        1.66487006      -0.41513823       0.98929614
7
Properties=species:S:1:pos:R:3 C2H4O=T energy=-4175.278570059272 dipole="-0.0 0.36428559175214825 -0.0" pbc="F F F"
O       -0.01226915       0.26768739      -0.04447519
C       -1.07551362      -0.64415883       0.01705786
C        1.04855691      -0.59894489       0.00065030
H       -1.57155410      -0.46947440       1.03046564
H       -1.61294621      -0.49909971      -0.94800228
H        1.66835347      -0.46741491      -0.85875700
H        1.66789289      -0.45988269       0.85211680
7
Properties=species:S:1:pos:R:3 C2H4O=T energy=-4175.278570059272 dipole="-0.0 0.36428559175214825 -0.0" pbc="F F F"
O       -0.07574210       0.28304845       0.04282047
C       -1.02401842      -0.70259068       0.00865931
C        1.05398824      -0.68449692       0.00768647
H       -1.64132036      -0.51339007       0.91234655
H       -1.61619035      -0.40208927      -0.84176756
H        1.57534638      -0.50313302      -0.86870526
H        1.66992031      -0.43048886       1.08709306
7
Properties=species:S:1:pos:R:3 C2H4O=T energy=-4175.278570059272 dipole="-0.0 0.36428559175214825 -0.0" pbc="F F F"
O        0.02854479       0.36215248       0.04770062
C       -1.00215355      -0.65606720       0.03794872
C        0.99608111      -0.65214498      -0.02426797
H       -1.64013709      -0.34050863       0.80109392
H       -1.60991657      -0.53687762      -0.91805425
H        1.69867738      -0.45302777      -0.94834426
H        1.60846582      -0.42226135       0.85793816
7
Properties=species:S:1:pos:R:3 C2H4O=T energy=-4175.278570059272 dipole="-0.0 0.36428559175214825 -0.0" pbc="F F F"
O        0.01082319       0.30765279      -0.03257949
C       -0.92752591      -0.60860779      -0.10125687
C        1.04404509      -0.67339337       0.04262188
H       -1.68385684      -0.46197838       0.91970654
H       -1.60094182      -0.51625665      -0.91118272
H        1.62048258      -0.48890823      -0.80618431
H        1.66448010      -0.51928544       0.94034959
7
Properties=species:S:1:pos:R:3 C2H4O=T energy=-4175.278570059272 dipole="-0.0 0.36428559175214825 -0.0" pbc="F F F"
O        0.10610807       0.35699746      -0.07596797
C       -1.05893481      -0.57695818      -0.03538321
C        1.05691334      -0.60157235      -0.04634631
H       -1.64720707      -0.61830493       0.84323780
H       -1.65685799      -0.51863099      -0.81283709
H        1.57272278      -0.47824399      -0.88791999
H        1.71629467      -0.52803435       0.95261468
7
Properties=species:S:1:pos:R:3 C2H4O=T energy=-4175.278570059272 dipole="-0.0 0.36428559175214825 -0.0" pbc="F F F"
O        0.00051191       0.25629877       0.02310570
C       -1.02477013      -0.67031458       0.00349036
C        1.01545669      -0.63462818       0.03310674
H       -1.56492996      -0.51813233       1.00110885
H       -1.74183397      -0.46383108      -0.86504180
H        1.65827944      -0.48737675      -0.90486313
H        1.61958096      -0.48570948       0.93693659
7
Properties=species:S:1:pos:R:3 C2H4O=T energy=-4175.278570059272 dipole="-0.0 0.36428559175214825 -0.0" pbc="F F F"
O        0.01785103       0.27072872       0.04498052
C       -1.01935813      -0.59966063       0.03148170
C        0.99327262      -0.66831310       0.03736489
H       -1.61371229      -0.45728664       0.90032355
H       -1.58034634      -0.48582040      -0.86710279
H        1.63412022      -0.46712583      -0.83951818
H        1.68550183      -0.41556576       0.95973043
7
Properties=species:S:1:pos:R:3 C2H4O=T energy=-4175.278570059272 dipole="-0.0 0.36428559175214825 -0.0" pbc="F F F"
O        0.00105045       0.33947185      -0.01551281
C       -1.01851479      -0.64681089       0.00485006
C        1.06448022      -0.68121508       0.10461957
H       -1.69453167      -0.51695099       0.95236272
H       -1.60464645      -0.42503584      -0.86304038
H        1.64361751      -0.50110449      -0.89066679
H        1.61037292      -0.40748525       0.88710362
7
Properties=species:S:1:pos:R:3 C2H4O=T energy=-4175.278570059272 dipole="-0.0 0.36428559175214825 -0.0" pbc="F F F"
O       -0.04127460       0.28930491       0.02064710
C       -1.06290934      -0.68141476       0.01218462
C        1.04697070      -0.66565121      -0.02355171
H       -1.63262830      -0.52864578       0.82408399
H       -1.68015179      -0.46691419      -0.87891228
H        1.71799766      -0.41335879      -0.90245395
H        1.64328020      -0.50636771       0.89353083
7
Properties=species:S:1:pos:R:3 C2H4O=T energy=-4175.278570059272 dipole="-0.0 0.36428559175214825 -0.0" pbc="F F F"
O       -0.01443267       0.32151013      -0.04136102
C       -1.00875578      -0.56366679      -0.00543775
C        1.05480796      -0.60579685      -0.02006081
H       -1.63302618      -0.45561194       0.89934098
H       -1.68288007      -0.45501632      -0.86955775
H        1.71678703      -0.40827823      -0.78679790
H        1.60586363      -0.41262521       0.90362359
7
Properties=species:S:1:pos:R:3 C2H4O=T energy=-4175.278570059272 dipole="-0.0 0.36428559175214825 -0.0" pbc="F F F"
O        0.10949041       0.26495929      -0.04198556
C       -1.06469274      -0.74649853      -0.02628749
C        0.99676574      -0.63278436       0.01708801
H       -1.55042226      -0.40872037       0.86561200
H       -1.68915031      -0.43164587      -0.96046932
H        1.73580279      -0.39726976      -0.91791580
H        1.55857428      -0.38854762       0.88872950
7
Properties=species:S:1:pos:R:3 C2H4O=T energy=-4175.278570059272 dipole="-0.0 0.36428559175214825 -0.0" pbc="F F F"
O        0.06189108       0.22565282      -0.02996822
C       -1.03446093      -0.63795471      -0.02250301
C        1.06586487      -0.69368507      -0.00711876
H       -1.63821602      -0.43051962       0.93003792
H       -1.70046168      -0.53294754      -0.83057382
H        1.66084555      -0.49366610      -0.81689942
H        1.65001474      -0.39727638       0.89783241
7
Properties=species:S:1:pos:R:3 C2H4O=T energy=-4175.278570059272 dipole="-0.0 0.36428559175214825 -0.0" pbc="F F F"
O        0.10303766       0.39314124      -0.01244768
C       -0.98614456      -0.60803494       0.06843184
C        0.98647620      -0.60600148       0.05292143
H       -1.73216777      -0.51540449       0.79249557
H       -1.65769992      -0.42036472      -0.81933981
H        1.64793459      -0.37481099      -0.96346209
H        1.55906189      -0.45901862       0.91365976
7
Properties=species:S:1:pos:R:3 C2H4O=T energy=-4175.278570059272 dipole="-0.0 0.36428559175214825 -0.0" pbc="F F F"
O       -0.00163448       0.20200209      -0.00445547
C       -1.09994659      -0.60682011       0.01833017
C        0.98772838      -0.66599740      -0.05296047
H       -1.64736475      -0.40848444       0.84517088
H       -1.61902725      -0.48275471      -0.93410130
H        1.63887833      -0.50800389      -0.92213949
H        1.58433712      -0.35800498       0.89621967
7
Properties=species:S:1:pos:R:3 C2H4O=T energy=-4175.278570059272 dipole="-0.0 0.36428559175214825 -0.0" pbc="F F F"
O       -0.03498602       0.31607320      -0.00561587
C       -1.04577159      -0.60959540       0.03787565
C        1.00819731      -0.66909496      -0.01375237
H       -1.75932686      -0.53200111       0.96280089
H       -1.56198119      -0.46869363      -0.86562981
H        1.65979236      -0.30229773      -0.83847827
H        1.63783513      -0.50401826       0.81413417
7
Properties=species:S:1:pos:R:3 C2H4O=T energy=-4175.278570059272 dipole="-0.0 0.36428559175214825 -0.0" pbc="F F F"
O        0.01017344       0.26755666      -0.07111216
C       -1.06705175      -0.69438114       0.08435734
C        1.07880436      -0.64070268       0.07399742
H       -1.64036238      -0.49930577       0.97061338
H       -1.61728408      -0.50810414      -0.90397459
H        1.60044894      -0.52538176      -0.84814814
H        1.73970184      -0.52616962       0.92260495
7
Properties=species:S:1:pos:R:3 C2H4O=T energy=-4175.278570059272 dipole="-0.0 0.36428559175214825 -0.0" pbc="F F F"
O       -0.03253187       0.28101793      -0.02961917
C       -1.07792265      -0.63787766      -0.04154725
C        1.04824521      -0.64281596      -0.01194719
H       -1.68960898      -0.48508013       0.93222674
H       -1.61918372      -0.50511959      -0.88949104
H        1.68179921      -0.53971203      -0.86728901
H        1.61109982      -0.42771131       0.85629353
7
Properties=species:S:1:pos:R:3 C2H4O=T energy=-4175.278570059272 dipole="-0.0 0.36428559175214825 -0.0" pbc="F F F"
O       -0.09024385       0.22399708       0.00240478
C       -1.02173698      -0.68551957       0.03192988
C        0.95164637      -0.64360804      -0.06055060
H       -1.67682261      -0.45387163       0.85143651
H       -1.66345736      -0.40592719      -0.92330225
H        1.68601446      -0.51272711      -0.86796681
H        1.71630944      -0.57982347       0.85461173
7
Properties=species:S:1:pos:R:3 C2H4O=T energy=-4175.278570059272 dipole="-0.0 0.36428559175214825 -0.0" pbc="F F F"
O        0.02885387       0.29522193       0.01855782
C       -1.06492237      -0.63597425      -0.00778360
C        1.09311147      -0.62758301       0.01688034
H       -1.66482465      -0.48062187       0.87282927
H       -1.62450697      -0.47729105      -0.87996892
H        1.74799989      -0.41268553      -0.91075820
H        1.70429171      -0.47664501       0.79255026
7
Properties=species:S:1:pos:R:3 C2H4O=T energy=-4175.278570059272 dipole="-0.0 0.36428559175214825 -0.0" pbc="F F F"
O       -0.05040406       0.21183460      -0.01757514
C       -1.03380219      -0.55648187       0.01634663
C        1.02376734      -0.59883377      -0.11055656
H       -1.63245007      -0.41769830       0.82052787
H       -1.58704188      -0.43931701      -0.91522206
H        1.67586894      -0.34270713      -0.88536371
H        1.65664204      -0.47920928       0.85196427
7
Properties=species:S:1:pos:R:3 C2H4O=T energy=-4175.278570059272 dipole="-0.0 0.36428559175214825 -0.0" pbc="F F F"
O        0.04151705       0.26257001       0.00357884
C       -1.05860598      -0.61635475       0.01668337
C        1.08659937      -0.66580487      -0.01349354
H       -1.69316899      -0.47845622       0.91332220
H       -1.60638015      -0.50235010      -0.85097736
H        1.71201174      -0.43557002      -0.80061723
H        1.60554155      -0.51847398       0.80552048
7
Properties=species:S:1:pos:R:3 C2H4O=T energy=-4175.278570059272 dipole="-0.0 0.36428559175214825 -0.0" pbc="F F F"
O        0.07480248       0.33809248      -0.00277870
C       -1.02072468      -0.69657819       0.12228786
C        1.04118343      -0.63483431       0.03628854
H       -1.62018034      -0.44504736       0.85493346
H       -1.62065616      -0.36214061      -0.82718666
H        1.72388918      -0.48180255      -0.94393726
H        1.63794166      -0.45345499       0.94916607
7
Properties=species:S:1:pos:R:3 C2H4O=T energy=-4175.278570059272 dipole="-0.0 0.36428559175214825 -0.0" pbc="F F F"
O       -0.08462297       0.38185172      -0.00789986
C       -1.05606716      -0.69090896      -0.08274257
C        1.07588090      -0.63663815      -0.06449783
H       -1.70898474      -0.47303079       0.97790826
H       -1.65720915      -0.53139898      -0.90674481
H        1.63059367      -0.59108610      -0.89717176
H        1.63268428      -0.42143092       0.98690429
7
Properties=species:S:1:pos:R:3 C2H4O=T energy=-4175.278570059272 dipole="-0.0 0.36428559175214825 -0.0" pbc="F F F"
O        0.05632851       0.29192977      -0.05532577
C       -0.90605512      -0.63734282       0.00069672
C        1.03351612      -0.63039981      -0.00721781
H       -1.67291390      -0.48358451       0.89281952
H       -1.67140082      -0.49188412      -0.88913615
H        1.63148099      -0.38104212      -1.02700551
H        1.69880635      -0.39393698       0.79078698
7
Properties=species:S:1:pos:R:3 C2H4O=T energy=-4175.278570059272 dipole="-0.0 0.36428559175214825 -0.0" pbc="F F F"
O       -0.01713412       0.28680216      -0.07037505
C       -1.07361394      -0.69583253       0.08761378
C        1.08150629      -0.57672630       0.03608381
H       -1.70068339      -0.48246757       0.91892591
H       -1.70533597      -0.42059191      -0.90647393
H        1.62548881      -0.42069377      -0.87224385
H        1.62618270      -0.39827475       0.84040332
7
Properties=species:S:1:pos:R:3 C2H4O=T energy=-4175.278570059272 dipole="-0.0 0.36428559175214825 -0.0" pbc="F F F"
O        0.03079704       0.33502926      -0.01547679
C       -1.01841646      -0.70285942       0.04620161
C        1.02547726      -0.66644020       0.05245067
H       -1.67944798      -0.52666462       0.81662572
H       -1.61392908      -0.52026330      -0.80671795
H        1.54013338      -0.37141895      -0.88390615
H        1.63939535      -0.48348719       0.91441330
7
Properties=species:S:1:pos:R:3 C2H4O=T energy=-4175.278570059272 dipole="-0.0 0.36428559175214825 -0.0" pbc="F F F"
O       -0.00188148       0.36053929       0.00571191
C       -1.02720802      -0.65848435      -0.00284702
C        1.05011246      -0.72581247      -0.06740906
H       -1.60706760      -0.44769829       0.88525801
H       -1.64330788      -0.43886274      -0.92144564
H        1.60531461      -0.44644951      -0.94337566
H        1.66464365      -0.54137042       0.94591427
7
Properties=species:S:1:pos:R:3 C2H4O=T energy=-4175.278570059272 dipole="-0.0 0.36428559175214825 -0.0" pbc="F F F"
O        0.02363013       0.31817569       0.04913508
C       -0.95144939      -0.58958524      -0.09204345
C        0.97074352      -0.67154498       0.00130476
H       -1.61834785      -0.49252875       0.90379552
H       -1.68199873      -0.48681772      -0.96479071
H        1.59806819      -0.52382600      -0.94325068
H        1.69691310      -0.50371118       1.02607559
7
Properties=species:S:1:pos:R:3 C2H4O=T energy=-4175.278570059272 dipole="-0.0 0.36428559175214825 -0.0" pbc="F F F"
O        0.02466616       0.31461601      -0.04291736
C       -0.99970762      -0.66908563       0.00610075
C        1.16272660      -0.64510704       0.05746388
H       -1.67938962      -0.45799098       0.98299721
H       -1.67557793      -0.36561940      -0.85907006
H        1.61610651      -0.42462138      -0.84582930
H        1.67532151      -0.53475248       0.85809963
7
Properties=species:S:1:pos:R:3 C2H4O=T energy=-4175.278570059272 dipole="-0.0 0.36428559175214825 -0.0" pbc="F F F"
O       -0.01237567       0.30165253       0.03103413
C       -1.02583806      -0.70707096       0.01901015
C        1.06525166      -0.61231453       0.05403925
H       -1.60253469      -0.43328256       0.89094889
H       -1.72727763      -0.43476092      -0.88407328
H        1.65780879      -0.52007920      -0.94850985
H        1.69688865      -0.45821900       0.92853152
7
Properties=species:S:1:pos:R:3 C2H4O=T energy=-4175.278570059272 dipole="-0.0 0.36428559175214825 -0.0" pbc="F F F"
O        0.00141618       0.30686201       0.04691472
C       -1.06052535      -0.63549770      -0.02311350
C        1.01299756      -0.65576266       0.01110690
H       -1.66816823      -0.39345375       0.84972681
H       -1.65357316      -0.47822838      -0.82210877
H        1.65405759      -0.40464954      -0.96873504
H        1.65758352      -0.41175970       0.89857069
7
Properties=species:S:1:pos:R:3 C2H4O=T energy=-4175.278570059272 dipole="-0.0 0.36428559175214825 -0.0" pbc="F F F"
O        0.05327428       0.27950978       0.07046790
C       -0.91977820      -0.65844567      -0.02227487
C        1.10739159      -0.56132544      -0.02614279
H       -1.66524014      -0.47033079       0.82723465
H       -1.69016218      -0.50644887      -0.93284754
H        1.64249561      -0.44453103      -0.81693200
H        1.59431331      -0.40702512       0.88375705
7
Properties=species:S:1:pos:R:3 C2H4O=T energy=-4175.278570059272 dipole="-0.0 0.36428559175214825 -0.0" pbc="F F F"
O       -0.00247293       0.33911517      -0.05613557
C       -1.01560262      -0.63198113       0.02462282
C        1.04918080      -0.51753904      -0.03188679
H       -1.67078065      -0.48739859       0.86668332
H       -1.67609894      -0.39679100      -0.82343245
H        1.61569254      -0.49785955      -0.87088624
H        1.61661986      -0.42459465       0.90460264
7
Properties=species:S:1:pos:R:3 C2H4O=T energy=-4175.278570059272 dipole="-0.0 0.36428559175214825 -0.0" pbc="F F F"
O       -0.07578695       0.38274946       0.08979441
C       -1.06536254      -0.65968882       0.01429353
C        1.05144521      -0.60737684       0.10051044
H       -1.65307816      -0.49615642       0.82549122
H       -1.68077608      -0.45789818      -0.80472977
H        1.61834929      -0.44505237      -0.89527816
H        1.70365067      -0.32989462       0.86791305
7
Properties=species:S:1:pos:R:3 C2H4O=T energy=-4175.278570059272 dipole="-0.0 0.36428559175214825 -0.0" pbc="F F F"
O       -0.02447171       0.35758224       0.03409510
C       -0.94238774      -0.61110733      -0.01796434
C        1.06425511      -0.58486887       0.04102432
H       -1.61886710      -0.40290783       0.95292196
H       -1.57512163      -0.42380634      -0.90281356
H        1.65156553      -0.39591632      -0.93530380
H        1.66266468      -0.47590818       0.89589373
7
Properties=species:S:1:pos:R:3 C2H4O=T energy=-4175.278570059272 dipole="-0.0 0.36428559175214825 -0.0" pbc="F F F"
O        0.06392285       0.31492915       0.00232236
C       -1.10271592      -0.60299106       0.03227447
C        1.14288511      -0.65569296       0.01095773
H       -1.63176162      -0.37736890       0.88969240
H       -1.63027850      -0.42584700      -0.88512720
H        1.62190817      -0.44653727      -0.84077543
H        1.59290525      -0.44959276       0.85945045
7
Properties=species:S:1:pos:R:3 C2H4O=T energy=-4175.278570059272 dipole="-0.0 0.36428559175214825 -0.0" pbc="F F F"
O        0.05975259       0.22921485      -0.02794556
C       -1.01586252      -0.56202754      -0.00328725
C        1.00696239      -0.54624620      -0.07240049
H       -1.75417110      -0.43424084       0.86935447
H       -1.69529122      -0.42082401      -0.88226762
H        1.61602592      -0.52025699      -0.85083415
H        1.67674107      -0.46120003       0.98678834
7
Properties=species:S:1:pos:R:3 C2H4O=T energy=-4175.278570059272 dipole="-0.0 0.36428559175214825 -0.0" pbc="F F F"
O       -0.05350398       0.22909794      -0.03459487
C       -1.03700241      -0.62813677      -0.01206154
C        1.05232514      -0.70288102       0.07218844
H       -1.64833836      -0.40037677       0.91159345
H       -1.62139192      -0.42775347      -0.87207223
H        1.67636599      -0.38978414      -0.88463096
H        1.67968120      -0.46072802       0.96646235
7
Properties=species:S:1:pos:R:3 C2H4O=T energy=-4175.278570059272 dipole="-0.0 0.36428559175214825 -0.0" pbc="F F F"
O       -0.03381936       0.39542122      -0.00200737
C       -1.10626187      -0.63389852      -0.03405232
C        1.07675455      -0.67293525      -0.02230896
H       -1.73870784      -0.47885688       0.77326321
H       -1.72342472      -0.41822110      -0.85516765
H        1.66550273      -0.50459058      -0.89684259
H        1.64405088      -0.51415947       0.96962641
7
Properties=species:S:1:pos:R:3 C2H4O=T energy=-4175.278570059272 dipole="-0.0 0.36428559175214825 -0.0" pbc="F F F"
O        0.04386837       0.29432599       0.00134482
C       -1.02430397      -0.74239048      -0.01235861
C        1.00062316      -0.69038505      -0.01405480
H       -1.55434647      -0.42419942       0.86589823
H       -1.61560044      -0.38627406      -0.84822598
H        1.64721137      -0.48858861      -0.85954585
H        1.66390528      -0.41148158       0.92621508
7
Properties=species:S:1:pos:R:3 C2H4O=T energy=-4175.278570059272 dipole="-0.0 0.36428559175214825 -0.0" pbc="F F F"
O        0.05247790       0.27861244       0.06587023
C       -1.02484313      -0.53654070      -0.03445913
C        1.12152056      -0.63040851      -0.03257069
H       -1.66842509      -0.47225893       0.91566548
H       -1.61808781      -0.48492683      -0.89567539
H        1.75134337      -0.36986461      -0.87264084
H        1.64613118      -0.45023967       0.92513239
7
Properties=species:S:1:pos:R:3 C2H4O=T energy=-4175.278570059272 dipole="-0.0 0.36428559175214825 -0.0" pbc="F F F"
O       -0.05113937       0.29250537      -0.08342867
C       -1.01476195      -0.60794394      -0.02415906
C        1.11342171      -0.70159233      -0.07321853
H       -1.63300821      -0.40388664       0.97865356
H       -1.66717379      -0.40230779      -0.89638308
H        1.63559849      -0.41205877      -0.86184088
H        1.56541140      -0.38241422       0.96346106
