7
Properties=species:S:1:pos:R:3 C2H4O=T energy=-4181.764945393823 dipole="-0.0 -0.385055797266779 -0.0" pbc="F F F"
O       -0.02763874       0.87377941      -0.01704391
C       -0.76333931      -0.49137442      -0.03493508
C        0.76059996      -0.47503929      -0.11522178
H       -1.34041071      -0.66729571       0.90739920
H       -1.29954740      -0.65917627      -0.93644455
H        1.28764378      -0.59376092      -0.93040205
H        1.28881055      -0.67094846       0.99559301
7
Properties=species:S:1:pos:R:3 C2H4O=T energy=-4181.764945393823 dipole="-0.0 -0.385055797266779 -0.0" pbc="F F F"
O       -0.02308027       0.81251928      -0.05952194
C       -0.69839670      -0.42529035      -0.06285557
C        0.65619767      -0.53361307       0.05923421
H       -1.17995574      -0.68554532       0.94718046
H       -1.30147896      -0.70562795      -0.99216767
H        1.16464478      -0.62151388      -0.83733651
H        1.20649760      -0.68106665       0.91132266
7
Properties=species:S:1:pos:R:3 C2H4O=T energy=-4181.764945393823 dipole="-0.0 -0.385055797266779 -0.0" pbc="F F F"
O        0.04589093       0.75697401       0.02679572
C       -0.75214121      -0.40134405       0.06423794
C        0.71116490      -0.43947160       0.01133425
H       -1.27878649      -0.73325120       0.91098326
H       -1.16890656      -0.69825508      -0.89699114
H        1.24081492      -0.76301644      -0.93785419
H        1.34414714      -0.67143220       0.98447940
7
Properties=species:S:1:pos:R:3 C2H4O=T energy=-4181.764945393823 dipole="-0.0 -0.385055797266779 -0.0" pbc="F F F"
O        0.05283381       0.74849688      -0.00705080
C       -0.73439917      -0.48638970      -0.02570796
C        0.68690346      -0.42637732      -0.10484210
H       -1.28310142      -0.63830725       0.94789605
H       -1.32946698      -0.75831876      -0.95275350
H        1.35293970      -0.65564859      -0.96081704
H        1.29663931      -0.74537913       0.95696126
7
Properties=species:S:1:pos:R:3 C2H4O=T energy=-4181.764945393823 dipole="-0.0 -0.385055797266779 -0.0" pbc="F F F"
O       -0.06754185       0.78591942       0.02452516
C       -0.78121993      -0.49973588      -0.12448264
C        0.74955248      -0.41795619       0.01426737
H       -1.23246569      -0.81582620       0.89719748
H       -1.21016433      -0.69650811      -0.91019524
H        1.23592506      -0.63505238      -0.94464112
H        1.15133756      -0.63280165       0.89151583
7
Properties=species:S:1:pos:R:3 C2H4O=T energy=-4181.764945393823 dipole="-0.0 -0.385055797266779 -0.0" pbc="F F F"
O       -0.05745947       0.76917885      -0.02613590
C       -0.68337254      -0.47886049      -0.00165835
C        0.75047345      -0.43491150      -0.05156003
H       -1.26370779      -0.58659946       0.92338470
H       -1.30347822      -0.67954981      -0.93200315
H        1.24903525      -0.66670548      -0.92531270
H        1.23597634      -0.75846187       0.90044357
7
Properties=species:S:1:pos:R:3 C2H4O=T energy=-4181.764945393823 dipole="-0.0 -0.385055797266779 -0.0" pbc="F F F"
O       -0.02454927       0.80015872       0.03532797
C       -0.71434403      -0.39117131      -0.04540994
C        0.75676741      -0.45786830      -0.09281337
H       -1.20326633      -0.64518298       0.93714269
H       -1.24437230      -0.67038779      -0.81747356
H        1.24821267      -0.67512705      -0.99158797
H        1.26196045      -0.60593419       0.94146434
7
Properties=species:S:1:pos:R:3 C2H4O=T energy=-4181.764945393823 dipole="-0.0 -0.385055797266779 -0.0" pbc="F F F"
O        0.00769715       0.78946657      -0.02401784
C       -0.73250298      -0.39848080      -0.05035881
C        0.72186458      -0.43725720      -0.01334528
H       -1.29094410      -0.75797788       0.96717335
H       -1.24529194      -0.64562828      -0.96747516
H        1.28704634      -0.65259882      -0.96455640
H        1.16798280      -0.68701284       0.97666133
7
Properties=species:S:1:pos:R:3 C2H4O=T energy=-4181.764945393823 dipole="-0.0 -0.385055797266779 -0.0" pbc="F F F"
O       -0.04117341       0.77513309       0.01220569
C       -0.73322422      -0.59572816       0.04704595
C        0.70812500      -0.48343625      -0.05396811
H       -1.26544353      -0.72980273       0.90684855
H       -1.19357257      -0.63525543      -0.97034985
H        1.27522878      -0.70048267      -0.98009521
H        1.28090802      -0.69891669       0.99871290
7
Properties=species:S:1:pos:R:3 C2H4O=T energy=-4181.764945393823 dipole="-0.0 -0.385055797266779 -0.0" pbc="F F F"
O        0.02856150       0.81677659      -0.00756133
C       -0.72672087      -0.44630165      -0.08761410
C        0.72203044      -0.36528409       0.04308768
H       -1.32309858      -0.64963076       0.93838470
H       -1.24895824      -0.72419271      -0.95857485
H        1.12963328      -0.72434368      -0.97503842
H        1.23213091      -0.68972845       0.99737659
7
Properties=species:S:1:pos:R:3 C2H4O=T energy=-4181.764945393823 dipole="-0.0 -0.385055797266779 -0.0" pbc="F F F"
O       -0.06622788       0.73049228      -0.03523300
C       -0.72025671      -0.34208750      -0.06593299
C        0.63525989      -0.49089099      -0.07178537
H       -1.22958015      -0.71919143       0.89551880
H       -1.25091504      -0.70432870      -0.94486096
H        1.28126715      -0.63512036      -0.92095083
H        1.31675291      -0.63443914       0.90016908
7
Properties=species:S:1:pos:R:3 C2H4O=T energy=-4181.764945393823 dipole="-0.0 -0.385055797266779 -0.0" pbc="F F F"
O        0.07844501       0.74465182       0.04613269
C       -0.64380647      -0.40343494      -0.01686721
C        0.70648339      -0.38694162       0.08747214
H       -1.25166261      -0.70243752       0.95966030
H       -1.31797692      -0.65955872      -0.81793230
H        1.36020795      -0.70113932      -0.88065354
H        1.24654691      -0.67624037       0.91035409
7
Properties=species:S:1:pos:R:3 C2H4O=T energy=-4181.764945393823 dipole="-0.0 -0.385055797266779 -0.0" pbc="F F F"
O       -0.05618511       0.82368951       0.02942489
C       -0.71245576      -0.46518102       0.03356680
C        0.76062579      -0.44019140      -0.04517917
H       -1.40096855      -0.70402793       0.93584215
H       -1.28941884      -0.59154123      -0.86985565
H        1.27221805      -0.67893800      -0.90935023
H        1.25843566      -0.62033952       0.90200742
7
Properties=species:S:1:pos:R:3 C2H4O=T energy=-4181.764945393823 dipole="-0.0 -0.385055797266779 -0.0" pbc="F F F"
O       -0.00275750       0.83967237      -0.01496862
C       -0.77662121      -0.43086272       0.04422309
C        0.76365587      -0.41662022       0.07042055
H       -1.21501620      -0.57492408       0.97654483
H       -1.24603938      -0.68753164      -0.95324035
H        1.18788382      -0.65138198      -0.85703447
H        1.29550095      -0.71877740       1.01280315
7
Properties=species:S:1:pos:R:3 C2H4O=T energy=-4181.764945393823 dipole="-0.0 -0.385055797266779 -0.0" pbc="F F F"
O        0.02356101       0.69621140       0.01544820
C       -0.69607953      -0.41470573      -0.04583138
C        0.61835993      -0.46806910      -0.10045079
H       -1.25490422      -0.57176395       0.87858133
H       -1.32811514      -0.63141568      -0.76970426
H        1.26349463      -0.66305637      -0.89571958
H        1.15637181      -0.61581840       0.94834620
7
Properties=species:S:1:pos:R:3 C2H4O=T energy=-4181.764945393823 dipole="-0.0 -0.385055797266779 -0.0" pbc="F F F"
O       -0.05019006       0.81656541      -0.06198872
C       -0.68846337      -0.49167602      -0.06727524
C        0.78772801      -0.38173371      -0.01527591
H       -1.24893668      -0.71527447       0.87036382
H       -1.30158246      -0.64918779      -0.93486637
H        1.28952982      -0.64301399      -1.03210352
H        1.24638873      -0.68168318       0.81706585
7
Properties=species:S:1:pos:R:3 C2H4O=T energy=-4181.764945393823 dipole="-0.0 -0.385055797266779 -0.0" pbc="F F F"
O       -0.02705721       0.76362758      -0.04773445
C       -0.76442536      -0.38906113       0.05529142
C        0.66969406      -0.54777314       0.00986455
H       -1.24953596      -0.69222879       0.88104050
H       -1.26377276      -0.63029123      -0.98921700
H        1.22281462      -0.76367038      -0.95442536
H        1.32139482      -0.63165394       0.98238492
7
Properties=species:S:1:pos:R:3 C2H4O=T energy=-4181.764945393823 dipole="-0.0 -0.385055797266779 -0.0" pbc="F F F"
O       -0.10112103       0.82052841       0.01309646
C       -0.72116813      -0.49718491       0.00482977
C        0.73978182      -0.52345886       0.01946460
H       -1.24229665      -0.66747385       0.82749339
H       -1.33744217      -0.79129090      -0.89432169
H        1.34945043      -0.60998135      -0.81532544
H        1.21678302      -0.69273537       0.95532865
7
Properties=species:S:1:pos:R:3 C2H4O=T energy=-4181.764945393823 dipole="-0.0 -0.385055797266779 -0.0" pbc="F F F"
O        0.02928303       0.74325396      -0.05973219
C       -0.64839889      -0.43790567      -0.01143757
C        0.76636019      -0.41633073      -0.02023615
H       -1.30618340      -0.67795624       0.97951382
H       -1.24484716      -0.70329667      -0.91620762
H        1.35944596      -0.55408538      -0.82710493
H        1.29537779      -0.53151315       0.88736477
7
Properties=species:S:1:pos:R:3 C2H4O=T energy=-4181.764945393823 dipole="-0.0 -0.385055797266779 -0.0" pbc="F F F"
O        0.00434905       0.75804526       0.00864278
C       -0.69120596      -0.37265293      -0.01257550
C        0.75772579      -0.44043762       0.14251321
H       -1.36481164      -0.62054216       0.94415871
H       -1.23525018      -0.62758450      -0.92688989
H        1.25170215      -0.76722037      -0.88933419
H        1.33869423      -0.64977011       0.93204857
7
Properties=species:S:1:pos:R:3 C2H4O=T energy=-4181.764945393823 dipole="-0.0 -0.385055797266779 -0.0" pbc="F F F"
O       -0.06105907       0.72379151       0.03149125
C       -0.62748798      -0.42033033       0.01333051
C        0.71902682      -0.51821162       0.01218332
H       -1.26545836      -0.68372353       0.89039097
H       -1.19863954      -0.71268477      -0.92534867
H        1.33672201      -0.74667856      -0.88921709
H        1.22563627      -0.69325924       0.93301613
7
Properties=species:S:1:pos:R:3 C2H4O=T energy=-4181.764945393823 dipole="-0.0 -0.385055797266779 -0.0" pbc="F F F"
O       -0.05310336       0.72963150      -0.06914619
C       -0.74062913      -0.49443363       0.07514344
C        0.70543913      -0.48663350      -0.01191180
H       -1.22141878      -0.67212745       0.90529484
H       -1.23963109      -0.61798875      -0.97961456
H        1.26221108      -0.70199203      -0.92333028
H        1.28697222      -0.59956111       0.87493894
7
Properties=species:S:1:pos:R:3 C2H4O=T energy=-4181.764945393823 dipole="-0.0 -0.385055797266779 -0.0" pbc="F F F"
O       -0.03672573       0.83664905      -0.01465748
C       -0.71480176      -0.37766617      -0.02015171
C        0.74366615      -0.49099995       0.00239069
H       -1.23599121      -0.62572003       0.89644899
H       -1.33381296      -0.67895425      -0.87781203
H        1.24038156      -0.58983571      -0.97774795
H        1.21473372      -0.68854808       0.87184220
7
Properties=species:S:1:pos:R:3 C2H4O=T energy=-4181.764945393823 dipole="-0.0 -0.385055797266779 -0.0" pbc="F F F"
O        0.07571820       0.74076685      -0.00813331
C       -0.75853404      -0.37753652       0.02678751
C        0.72092281      -0.47718651       0.04223812
H       -1.25440039      -0.70713152       0.90897489
H       -1.31486463      -0.60460560      -0.96353038
H        1.30109017      -0.65540990      -0.96121092
H        1.16468257      -0.68522449       0.90567461
7
Properties=species:S:1:pos:R:3 C2H4O=T energy=-4181.764945393823 dipole="-0.0 -0.385055797266779 -0.0" pbc="F F F"
O       -0.00796251       0.77232643       0.05299240
C       -0.70444568      -0.55712210      -0.04391347
C        0.60357012      -0.41940829      -0.02266891
H       -1.37123691      -0.68145818       0.88659804
H       -1.20082526      -0.68371875      -0.89261572
H        1.27647230      -0.77440125      -0.89848120
H        1.25371419      -0.69783932       0.89368471
7
Properties=species:S:1:pos:R:3 C2H4O=T energy=-4181.764945393823 dipole="-0.0 -0.385055797266779 -0.0" pbc="F F F"
O       -0.03443180       0.77903514       0.00624387
C       -0.68967206      -0.37298802      -0.07921270
C        0.72498628      -0.41824931      -0.01860687
H       -1.19208264      -0.62215441       0.91855033
H       -1.19222905      -0.60024785      -0.86347859
H        1.34978905      -0.71347562      -0.86290273
H        1.25685577      -0.78714561       0.95733606
7
Properties=species:S:1:pos:R:3 C2H4O=T energy=-4181.764945393823 dipole="-0.0 -0.385055797266779 -0.0" pbc="F F F"
O        0.04430466       0.79703257      -0.06464859
C       -0.75739609      -0.47949515       0.05968373
C        0.69851933      -0.44237796       0.00411170
H       -1.31710167      -0.77982822       0.86040705
H       -1.26888499      -0.63289612      -0.90085021
H        1.22707247      -0.71298958      -0.86971737
H        1.24050655      -0.74212609       0.87260128
7
Properties=species:S:1:pos:R:3 C2H4O=T energy=-4181.764945393823 dipole="-0.0 -0.385055797266779 -0.0" pbc="F F F"
O       -0.03282345       0.83322010       0.04751770
C       -0.74683019      -0.48217023      -0.04509755
C        0.72838226      -0.42492699      -0.00982621
H       -1.28935824      -0.55579132       0.92488019
H       -1.33241830      -0.61385028      -0.96914704
H        1.28548853      -0.65052921      -0.89450873
H        1.25468595      -0.60328536       1.00026406
7
Properties=species:S:1:pos:R:3 C2H4O=T energy=-4181.764945393823 dipole="-0.0 -0.385055797266779 -0.0" pbc="F F F"
O        0.05659837       0.77638486      -0.04449523
C       -0.75535815      -0.46848160      -0.04319908
C        0.68430354      -0.42676991       0.09070251
H       -1.31093050      -0.72180486       0.87737930
H       -1.32395775      -0.62356239      -0.87074432
H        1.33889515      -0.68234376      -0.89393978
H        1.19929901      -0.65063697       0.94368274
7
Properties=species:S:1:pos:R:3 C2H4O=T energy=-4181.764945393823 dipole="-0.0 -0.385055797266779 -0.0" pbc="F F F"
O        0.03605358       0.80579714      -0.03190908
C       -0.71231073      -0.48555081       0.06032895
C        0.71008472      -0.42204194      -0.00063878
H       -1.26539444      -0.63598296       0.86188051
H       -1.25729574      -0.66871943      -0.92868210
H        1.23658336      -0.71750897      -0.98546182
H        1.30706443      -0.58485959       0.81986805
7
Properties=species:S:1:pos:R:3 C2H4O=T energy=-4181.764945393823 dipole="-0.0 -0.385055797266779 -0.0" pbc="F F F"
O        0.04040470       0.74238283      -0.03962181
C       -0.70925071      -0.44338612      -0.09929855
C        0.75324215      -0.42663027       0.09387182
H       -1.31108876      -0.66860302       0.87353494
H       -1.27188334      -0.66439122      -0.86548022
H        1.26864494      -0.72348582      -0.91009568
H        1.13640909      -0.78619876       1.02860438
7
Properties=species:S:1:pos:R:3 C2H4O=T energy=-4181.764945393823 dipole="-0.0 -0.385055797266779 -0.0" pbc="F F F"
O       -0.03602539       0.73115983      -0.02985633
C       -0.70442017      -0.51921267      -0.02193705
C        0.67168616      -0.38110017      -0.04157933
H       -1.20304751      -0.67141687       0.94231857
H       -1.21709533      -0.64584908      -0.98128781
H        1.20950964      -0.68118492      -0.93475334
H        1.29123874      -0.56905181       0.78416799
7
Properties=species:S:1:pos:R:3 C2H4O=T energy=-4181.764945393823 dipole="-0.0 -0.385055797266779 -0.0" pbc="F F F"
O        0.02530157       0.85581852      -0.08199140
C       -0.68776715      -0.54662827      -0.01665855
C        0.83121573      -0.48771111      -0.06323282
H       -1.30159598      -0.65292581       0.99517377
H       -1.18199571      -0.67609145      -0.96028074
H        1.28775942      -0.68700269      -0.86575410
H        1.24227928      -0.70680408       0.94958684
7
Properties=species:S:1:pos:R:3 C2H4O=T energy=-4181.764945393823 dipole="-0.0 -0.385055797266779 -0.0" pbc="F F F"
O        0.00649501       0.67413437      -0.06462945
C       -0.73048113      -0.43180708       0.05916504
C        0.66671102      -0.39437227       0.04142946
H       -1.32601498      -0.74436078       0.93837619
H       -1.15997975      -0.65278107      -0.91225110
H        1.32207760      -0.63659968      -0.84218269
H        1.37387843      -0.57298623       0.91128799
7
Properties=species:S:1:pos:R:3 C2H4O=T energy=-4181.764945393823 dipole="-0.0 -0.385055797266779 -0.0" pbc="F F F"
O       -0.00773029       0.79253253       0.05444290
C       -0.58476856      -0.49032784       0.03008731
C        0.71937677      -0.34575256       0.01380135
H       -1.22268743      -0.77560486       0.99366802
H       -1.24647460      -0.65642097      -0.83146459
H        1.21276681      -0.66209828      -0.96831311
H        1.26516865      -0.66411874       0.88498098
7
Properties=species:S:1:pos:R:3 C2H4O=T energy=-4181.764945393823 dipole="-0.0 -0.385055797266779 -0.0" pbc="F F F"
O       -0.01394255       0.79112150       0.06305715
C       -0.62535189      -0.52298800      -0.01230641
C        0.69739607      -0.41380733      -0.07438689
H       -1.23297235      -0.59481949       0.81920225
H       -1.32425159      -0.64536220      -0.95485677
H        1.26309152      -0.68120394      -0.90189204
H        1.26399869      -0.70629271       0.87486409
7
Properties=species:S:1:pos:R:3 C2H4O=T energy=-4181.764945393823 dipole="-0.0 -0.385055797266779 -0.0" pbc="F F F"
O        0.08070868       0.77632914      -0.02075374
C       -0.77602733      -0.44333292       0.04815016
C        0.73662267      -0.44128870      -0.08980061
H       -1.33417955      -0.55169760       1.00554809
H       -1.28009227      -0.76445267      -0.87988739
H        1.30902042      -0.65029300      -0.90500325
H        1.22679380      -0.68692767       0.97448818
7
Properties=species:S:1:pos:R:3 C2H4O=T energy=-4181.764945393823 dipole="-0.0 -0.385055797266779 -0.0" pbc="F F F"
O       -0.03724630       0.79820354      -0.00510288
C       -0.69467983      -0.48268869       0.07891028
C        0.70473967      -0.40235415       0.03551376
H       -1.34131921      -0.70029293       0.86852850
H       -1.20999016      -0.75774920      -0.90131263
H        1.21443674      -0.56808505      -0.92982442
H        1.20171084      -0.66978483       0.90148784
7
Properties=species:S:1:pos:R:3 C2H4O=T energy=-4181.764945393823 dipole="-0.0 -0.385055797266779 -0.0" pbc="F F F"
O        0.11351211       0.79474699      -0.00169646
C       -0.71067360      -0.48527959       0.06852261
C        0.74316040      -0.47347907       0.03758981
H       -1.24718478      -0.71316018       0.91668251
H       -1.22783786      -0.62244725      -0.91448213
H        1.23901476      -0.69440709      -0.94396564
H        1.19647535      -0.64306332       0.96369453
7
Properties=species:S:1:pos:R:3 C2H4O=T energy=-4181.764945393823 dipole="-0.0 -0.385055797266779 -0.0" pbc="F F F"
O       -0.02598656       0.70953985       0.04384440
C       -0.72440466      -0.46322132       0.06283038
C        0.71518011      -0.50175197       0.02372750
H       -1.16180825      -0.71918732       0.96523087
H       -1.27019032      -0.74062525      -0.89928433
H        1.26036114      -0.62164403      -0.94169394
H        1.28939274      -0.70805177       0.93868767
7
Properties=species:S:1:pos:R:3 C2H4O=T energy=-4181.764945393823 dipole="-0.0 -0.385055797266779 -0.0" pbc="F F F"
O        0.01502172       0.69605506       0.08962097
C       -0.75471638      -0.49319597       0.03256050
C        0.75904709      -0.42019197      -0.02587931
H       -1.26341415      -0.66256718       0.88434191
H       -1.24611468      -0.68502517      -0.88463784
H        1.33965685      -0.69039818      -0.82179337
H        1.26635849      -0.72751940       0.90171692
7
Properties=species:S:1:pos:R:3 C2H4O=T energy=-4181.764945393823 dipole="-0.0 -0.385055797266779 -0.0" pbc="F F F"
O       -0.08509375       0.74482319      -0.01637702
C       -0.68881019      -0.46212323       0.03968973
C        0.73584103      -0.42560442       0.01100915
H       -1.32697792      -0.69334210       0.95655216
H       -1.25883005      -0.67049427      -0.86274217
H        1.20835409      -0.68873673      -0.96326273
H        1.28818936      -0.64939545       1.01586449
7
Properties=species:S:1:pos:R:3 C2H4O=T energy=-4181.764945393823 dipole="-0.0 -0.385055797266779 -0.0" pbc="F F F"
O        0.04946160       0.75212200      -0.08372397
C       -0.73908115      -0.48974553      -0.18869361
C        0.71132014      -0.45884786      -0.01919557
H       -1.31529441      -0.68242495       1.01991445
H       -1.25776493      -0.68708416      -0.92175708
H        1.23764814      -0.72996274      -0.97163131
H        1.22311342      -0.57861705       0.92127834
7
Properties=species:S:1:pos:R:3 C2H4O=T energy=-4181.764945393823 dipole="-0.0 -0.385055797266779 -0.0" pbc="F F F"
O        0.03499719       0.82757873       0.03776655
C       -0.72785725      -0.45560582       0.05487256
C        0.68078474      -0.37040409      -0.00575834
H       -1.36587382      -0.72927280       0.93761158
H       -1.25406531      -0.56329335      -0.91225676
H        1.30660300      -0.68098237      -0.89030537
H        1.13305039      -0.59345557       0.90171384
7
Properties=species:S:1:pos:R:3 C2H4O=T energy=-4181.764945393823 dipole="-0.0 -0.385055797266779 -0.0" pbc="F F F"
O       -0.07367033       0.81046835      -0.00600271
C       -0.70703315      -0.47547537      -0.08009090
C        0.75722123      -0.39072007       0.01368362
H       -1.19771733      -0.71346695       0.87962183
H       -1.23311158      -0.75615132      -0.89047537
H        1.25652320      -0.72301024      -0.90128129
H        1.19530333      -0.60623187       0.92620980
7
Properties=species:S:1:pos:R:3 C2H4O=T energy=-4181.764945393823 dipole="-0.0 -0.385055797266779 -0.0" pbc="F F F"
O        0.03008981       0.81516745      -0.01249351
C       -0.70969610      -0.40563264      -0.07496691
C        0.66397025      -0.44648164       0.04739404
H       -1.24094622      -0.60863455       0.89295116
H       -1.15365045      -0.62141758      -0.98007449
H        1.36746267      -0.64331286      -0.93312058
H        1.23641658      -0.68347372       0.87610861
7
Properties=species:S:1:pos:R:3 C2H4O=T energy=-4181.764945393823 dipole="-0.0 -0.385055797266779 -0.0" pbc="F F F"
O        0.00934558       0.72575113       0.01897645
C       -0.81158581      -0.43741501       0.00496066
C        0.76533975      -0.32942547       0.09335893
H       -1.34618014      -0.66053032       0.93057233
H       -1.23565406      -0.60077773      -1.03595307
H        1.25401197      -0.66683169      -0.99671220
H        1.16345263      -0.70508354       1.02275963
7
Properties=species:S:1:pos:R:3 C2H4O=T energy=-4181.764945393823 dipole="-0.0 -0.385055797266779 -0.0" pbc="F F F"
O       -0.02743652       0.71515010      -0.00333292
C       -0.62753452      -0.41233527      -0.00373246
C        0.76640059      -0.46044505      -0.00565866
H       -1.26938420      -0.67475542       0.95418837
H       -1.31841658      -0.71581285      -0.92233315
H        1.22500150      -0.65505734      -0.96530615
H        1.31821808      -0.69590572       0.89909024
7
Properties=species:S:1:pos:R:3 C2H4O=T energy=-4181.764945393823 dipole="-0.0 -0.385055797266779 -0.0" pbc="F F F"
O        0.04615585       0.78430071      -0.02694366
C       -0.73915313      -0.45575719       0.01188769
C        0.77105909      -0.49324483      -0.03294141
H       -1.21910238      -0.63167870       0.89707775
H       -1.27434305      -0.60150699      -0.94809216
H        1.30561597      -0.64833388      -0.90058719
H        1.26639146      -0.65664356       0.99354207
7
Properties=species:S:1:pos:R:3 C2H4O=T energy=-4181.764945393823 dipole="-0.0 -0.385055797266779 -0.0" pbc="F F F"
O        0.07098948       0.77091443      -0.02845156
C       -0.73288646      -0.50365224      -0.02138522
C        0.74521916      -0.51990350      -0.06167332
H       -1.31753406      -0.75023884       0.89813629
H       -1.22994079      -0.69117572      -0.92900831
H        1.29914283      -0.72777345      -0.92315587
H        1.17412145      -0.71282538       0.92221317
