7
Properties=species:S:1:pos:R:3:forces:R:3 C2H4O=T energy=-4175.278570059272 dipole="-0.0 0.36428559175214825 -0.0" pbc="F F F"
O        0.00000026       0.30537420       0.00000053      -0.00002374       0.00499095       0.00000065
C       -1.03472311      -0.64030374       0.00000026      -0.00293258      -0.00288917       0.00000038
C        1.03472237      -0.64030405       0.00000021       0.00294759      -0.00290681      -0.00000184
H       -1.64423080      -0.45624156       0.89445718      -0.00155601       0.00026482      -0.00010916
H       -1.64422958      -0.45624183      -0.89445766      -0.00155522       0.00026408       0.00010891
H        1.64422985      -0.45624177      -0.89445702       0.00155986       0.00026236       0.00010442
H        1.64423101      -0.45624124       0.89445649       0.00155997       0.00026323      -0.00010449
